% Model:              20-15-10--200%--10-10-10.mph
% Version:            COMSOL 6.1.0.252
% Date:               Sep 6 2024, 16:20
% Dimension:          3
% Nodes:              217
% Expressions:        4
% Description:        线
% x                       y                        z                        磁标势                      u                        v                        w
2.2295482384408576        7.990449755765143E-4     0.01626688545130061      2387.167622963353        0.0073260162186354946    7.990449755765143E-4     0.01626688545130061
2.368911590513655         7.977037490786891E-4     0.018493710295026767     2387.2086691435125       0.007800479402544461     7.977037490786892E-4     0.018493710295026763
2.508270347569348         7.966358584280984E-4     0.020857872119725753     2387.24667724086         0.008270347569348115     7.966358584280984E-4     0.020857872119725753
2.6476245096079354        7.958413036247424E-4     0.02335937092539758      2387.281647255395        0.008735620719046456     7.958413036247424E-4     0.02335937092539758
2.786974076629417         7.953200846686206E-4     0.02599820671204224      2387.3135791871177       0.009196298851639481     7.953200846686206E-4     0.02599820671204224
2.9263190486337938        7.950722015597334E-4     0.028774379479659735     2387.3424730360284       0.009652381967127198     7.950722015597334E-4     0.02877437947965973
3.065659425621065         7.950976542980808E-4     0.03168788922825007      2387.368328802127        0.010103870065509597     7.950976542980806E-4     0.03168788922825007
3.204995207591231         7.953964428836625E-4     0.034738735957813224     2387.391146485413        0.010550763146786685     7.953964428836624E-4     0.034738735957813224
3.344326394544292         7.959685673164787E-4     0.03792691966834922      2387.4109260858872       0.01099306121095846      7.959685673164787E-4     0.03792691966834922
8.91180157997814          9.953882948486401E-4     0.2694257579641253       2387.666285221411        0.02291269108925203      9.953882948486401E-4     0.2694257579641253
9.05082624481167          0.0010038370056939063    0.2776002686228744       2387.668202424817        0.023048467033892777     0.0010038370056939063    0.2776002686228744
9.189844014246452         0.001016308935647402     0.28588436117683813      2387.670138236208        0.0231773475797853       0.001016308935647402     0.28588436117683813
9.328854888282484         0.0010328040847091277    0.29427803562601645      2387.6720926555827       0.023299332726929606     0.0010328040847091277    0.29427803562601645
9.46785886691977          0.0010533224528790834    0.3027812919704094       2387.6740656829425       0.023414422475325682     0.0010533224528790834    0.3027812919704094
9.606855950158305         0.0010778640401572692    0.3113941302100171       2387.676057318286        0.023522616824973537     0.0010778640401572692    0.3113941302100171
9.745846137998095         0.0011064288465436846    0.32011655034483943      2387.6780675616146       0.023623915775873167     0.0011064288465436846    0.32011655034483943
9.884829430439135         0.0011390168720383296    0.32894855237487636      2387.6800964129266       0.023718319328024574     0.0011390168720383296    0.32894855237487636
10.023805827481427        0.001175628116641205     0.337890136300128        2387.6821438722236       0.023805827481427764     0.001175628116641205     0.337890136300128
3.4836470642263926        7.991313017920423E-4     0.041261671793488726     2387.4220567625543       0.011424842004170438     7.991313017920423E-4     0.041261671793488726
3.622962010065081         8.01864825522986E-4      0.04472806837824549      2387.432067326738        0.011850898953969548     8.018648255229859E-4     0.04472806837824549
3.762271232060356         8.041691385093091E-4     0.048326109422619494     2387.440957778438        0.012271232060355785     8.041691385093091E-4     0.048326109422619494
3.901574730212218         8.060442407510126E-4     0.05205579492661075      2387.448728117655        0.012685841323329155     8.060442407510126E-4     0.05205579492661075
4.040872504520667         8.074901322480956E-4     0.05591712489021926      2387.455378344388        0.013094726742889654     8.074901322480956E-4     0.05591712489021925
4.180164554985703         8.085068130005587E-4     0.059910099313445014     2387.4609084586377       0.013497888319037284     8.085068130005585E-4     0.05991009931344501
4.319450881607327         8.090942830084014E-4     0.064034718196288        2387.465318460404        0.013895326051772044     8.090942830084014E-4     0.06403471819628802
4.458731484385538         8.092525422716241E-4     0.06829098153874827      2387.4686083496867       0.014287039941093935     8.092525422716241E-4     0.06829098153874827
4.598001508137882         8.120534653366421E-4     0.0726879114366832       2387.485116949074        0.014668174804547667     8.120534653366421E-4     0.07268791143668321
4.737265058805266         8.14840288891908E-4      0.07721037659500021      2387.500683966437        0.015042836583043263     8.14840288891908E-4      0.07721037659500021
4.876522136387692         8.176130129374216E-4     0.08185837701369926      2387.515309401776        0.015411025276580734     8.176130129374216E-4     0.08185837701369926
5.0157727408851605        8.203716374731829E-4     0.08663191269278037      2387.5289932550904       0.01577274088516007      8.203716374731829E-4     0.08663191269278037
5.155016872297671         8.231161624991921E-4     0.09153098363224355      2387.5417355263808       0.01612798340878128      8.231161624991922E-4     0.09153098363224353
5.294254530625222         8.258465880154492E-4     0.09655558983208876      2387.553536215647        0.01647675284744436      8.258465880154492E-4     0.09655558983208876
5.433485715867817         8.28562914021954E-4      0.10170573129231603      2387.564395322889        0.016819049201149308     8.28562914021954E-4      0.10170573129231603
5.572710428025451         8.312651405187067E-4     0.10698140801292537      2387.5743128481067       0.017154872469896127     8.312651405187067E-4     0.10698140801292537
7.799278759755817         9.309697832389805E-4     0.20791107060954167      2387.5895475885236       0.02150098197803676      9.309697832389805E-4     0.20791107060954167
7.9383717978670845        9.374600780189551E-4     0.21520922651020788      2387.6022190963276       0.021705131200415707     9.374600780189553E-4     0.21520922651020788
8.077456925811642         9.443966639907105E-4     0.2226191481304903       2387.6140108030763       0.02190137025608693      9.443966639907105E-4     0.2226191481304903
8.216534143589495         9.517795411542468E-4     0.23014083547038897      2387.62492270877         0.022089699145050424     9.517795411542468E-4     0.2301408354703889
8.35560345120064          9.596087095095639E-4     0.2377742885299038       2387.6349548134085       0.022270117867306195     9.596087095095639E-4     0.2377742885299038
8.494664848645076         9.678841690566616E-4     0.24551950730903488      2387.6441071169916       0.02244262642285424      9.678841690566616E-4     0.24551950730903482
8.633718335922806         9.766059197955405E-4     0.25337649180778216      2387.6523796195197       0.02260722481169456      9.766059197955405E-4     0.2533764918077821
8.772763913033828         9.857739617261997E-4     0.2613452420261456       2387.659772320993        0.022763913033827157     9.857739617261999E-4     0.2613452420261456
5.711926177368571         8.358575248164552E-4     0.11239313671027777      2387.5769801956408       0.017481732924125224     8.358575248164552E-4     0.11239313671027777
5.851134638427826         8.407547019271954E-4     0.11792478884686046      2387.578669774162        0.01780130509449196      8.407547019271954E-4     0.11792478884686046
5.99033581120322          8.459566718509268E-4     0.12357636442267343      2387.579381583671        0.018113588980996333     8.459566718509268E-4     0.12357636442267343
6.1295296956947505        8.514634345876499E-4     0.12934786343771668      2387.579115624168        0.018418584583638348     8.514634345876499E-4     0.12934786343771668
6.268716291902419         8.572749901373642E-4     0.13523928589199022      2387.5778718956526       0.018716291902418004     8.572749901373643E-4     0.1352392858919902
6.407895599826226         8.633913385000701E-4     0.14125063178549402      2387.575650398125        0.0190067109373353       8.633913385000701E-4     0.14125063178549402
6.547067619466169         8.698124796757674E-4     0.1473819011182281       2387.5724511315857       0.019289841688390236     8.698124796757674E-4     0.1473819011182281
6.686232350822251         8.765384136644562E-4     0.1536330938901925       2387.5682740960337       0.019565684155582807     8.765384136644562E-4     0.1536330938901925
6.825387091906551         8.77549859065849E-4      0.1600138645806036       2387.5751794124612       0.019831536350993738     8.77549859065849E-4      0.16001386458060357
6.964534993000106         8.802162975516481E-4     0.1665100570994454       2387.5808715489275       0.02009054855566061      8.802162975516483E-4     0.1665100570994454
7.103676054102918         8.845377291218541E-4     0.17312167144671797      2387.585350505431        0.020342720769583437     8.845377291218541E-4     0.17312167144671795
7.242810275214986         8.905141537764663E-4     0.17984870762242125      2387.5886162819734       0.02058805299276221      8.905141537764663E-4     0.17984870762242125
7.381937656336309         8.981455715154852E-4     0.18669116562655524      2387.590668878554        0.020826545225196925     8.98145571515485E-4      0.18669116562655524
7.521058197466889         9.074319823389103E-4     0.19364904545912         2387.5915082951724       0.02105819746688759      9.074319823389103E-4     0.19364904545912
7.660171898606726         9.183733862467423E-4     0.2007223471201155       2387.5911345318286       0.021283009717834204     9.183733862467422E-4     0.20072234712011547
0                         0                        0                        2385.071701198           0                        0                        0
0.13928568108691564       2.2226173478149394E-4    7.998847200275135E-8     2385.3450335718385       3.9679219802666785E-4    2.2226173478149394E-4    7.998847200273812E-8
0.27857941712476697       4.110142943351727E-4     1.3128976595131933E-4    2385.5986737056573       8.016393469890206E-4     4.110142943351727E-4     1.3128976595131933E-4
0.41788120811355395       5.662576786610362E-4     3.936293324379499E-4     2385.8326215994575       0.0012145414468870577    5.662576786610362E-4     3.936293324379499E-4
0.5571910540532766        6.879918877590844E-4     7.870986879318941E-4     2386.046877253238        0.00163549849772078      6.879918877590844E-4     7.870986879318941E-4
0.6965089549439349        7.762169216293176E-4     0.0013116978324331523    2386.241440667           0.002064510499490187     7.762169216293176E-4     0.0013116978324331523
0.835834910785529         8.309327802717354E-4     0.0019674267659417245    2386.4163118407423       0.0025015774521952782    8.309327802717353E-4     0.0019674267659417245
0.9751689215780586        8.52139463686338E-4      0.0027542854884576103    2386.571490774466        0.0029466993558360547    8.52139463686338E-4      0.0027542854884576103
1.114510987321524         8.398369718731254E-4     0.00367227399998081      2386.7069774681704       0.0033998762104125156    8.398369718731254E-4     0.00367227399998081
1.2539028596779789        8.302018954936625E-4     0.004743044872853238     2386.7872840698333       0.0039028596779786275    8.302018954936627E-4     0.004743044872853238
1.39329124175828          8.218628410691672E-4     0.0059576887624521084    2386.861097552992        0.004402352869390957     8.218628410691674E-4     0.0059576887624521084
1.532676133562427         8.148198085996395E-4     0.00731620566877742      2386.928417917646        0.004898355784649504     8.148198085996395E-4     0.00731620566877742
1.6720575350904208        8.090727980850793E-4     0.008818595591829174     2386.989245163796        0.005390868423754268     8.090727980850793E-4     0.008818595591829174
1.8114354463422606        8.046218095254868E-4     0.01046485853160737      2387.043579291442        0.005879890786705248     8.046218095254867E-4     0.01046485853160737
1.9508098673179466        8.014668429208617E-4     0.012254994488112007     2387.091420300583        0.0063654228735024465    8.014668429208617E-4     0.012254994488112007
2.090180798017479         7.996078982712043E-4     0.014189003461343087     2387.1327681912203       0.006847464684145862     7.996078982712043E-4     0.014189003461343087
11.135882994459335        0.0013825078903259784    0.413868409100983        2387.688268403951        0.024771883348222945     0.0013825078903259784    0.413868409100983
11.274853456629362        0.0014017018338882696    0.42395526843188885      2387.6917504648313       0.024853456629362957     0.0014017018338882696    0.42395526843188885
11.413810975609824        0.0014208188251081837    0.43416348067560595      2387.694957920668        0.02492208672093402      0.0014208188251081837    0.43416348067560595
11.552755551400713        0.0014398588639857202    0.44449304583213445      2387.6978907714606       0.024977773622936135     0.0014398588639857202    0.44449304583213445
11.691687184002035        0.0014588219505208794    0.4549439639014742       2387.700549017209        0.025020517335369294     0.0014588219505208794    0.4549439639014742
11.830605873413786        0.0014777080847136613    0.46551623488362515      2387.7029326579136       0.025050317858233508     0.001477708084713661     0.46551623488362515
11.969511619635972        0.0014965172665640661    0.4762098587785874       2387.7050416935745       0.025067175191528766     0.001496517266564066     0.4762098587785874
12.108404422668585        0.001515249496072093     0.48702483558636095      2387.7068761241912       0.02507108933525507      0.001515249496072093     0.48702483558636095
12.24728428251163         0.001533904773237743     0.49796116530694573      2387.708435949764        0.025062060289412432     0.001533904773237743     0.49796116530694573
12.386150750153185        0.0015550939250368577    0.5090346324003336       2387.7154692245226       0.025039639042075432     0.0015550939250368577    0.5090346324003336
12.525005079807459        0.0015761057942571303    0.5202219949087628       2387.721105631679        0.025005079807460046     0.0015761057942571303    0.5202219949087628
12.663847271474452        0.001596940380898561     0.5315232528322332       2387.7253451712327       0.02495838258556628      0.001596940380898561     0.5315232528322331
12.802677325154171        0.00161759768496115      0.5429384061707448       2387.7281878431845       0.024899547376394125     0.00161759768496115      0.5429384061707448
12.94149524084661         0.0016380777064448969    0.5544674549242977       2387.729633647534        0.024828574179943583     0.0016380777064448969    0.5544674549242977
13.080301018551769        0.001658380445349802     0.5661103990928916       2387.7296825842805       0.02474546299621466      0.0016583804453498018    0.5661103990928917
13.21909465826965         0.001678505901675865     0.577867238676527        2387.7283346534246       0.02465021382520735      0.001678505901675865     0.577867238676527
13.357876160000254        0.0016984540754230865    0.5897379736752036       2387.725589854966        0.024542826666921654     0.0016984540754230865    0.5897379736752036
10.162850006774613        0.0012145698901464515    0.34693456979227194      2387.6782630703374       0.023961117885723242     0.0012145698901464515    0.34693456979227194
10.3018843193761          0.0012497740059960838    0.3561083891724052       2387.6757098022654       0.02410654159831984      0.0012497740059960836    0.3561083891724052
10.440908765285885        0.0012812404641901016    0.36541159444052795      2387.674484068009        0.024242098619217563     0.0012812404641901016    0.365411594440528
10.579923344503973        0.0013089692647285055    0.3748441855966402       2387.674585867567        0.0243677889484164       0.0013089692647285055    0.3748441855966402
10.718928057030363        0.001332960407611295     0.3844061626407417       2387.6760152009406       0.024483612585916355     0.001332960407611295     0.3844061626407417
10.857922902865052        0.0013532138928384705    0.3940975255728327       2387.678772068129        0.024589569531717436     0.0013532138928384703    0.39409752557283273
10.996907882008044        0.0013697297204100314    0.4039182743929131       2387.6828564691327       0.02468565978581963      0.0013697297204100314    0.4039182743929131
13.496636995212974        0.001720984697479427     0.6017357474711541       2387.7316434419345       0.024414772990751853     0.001720984697479427     0.601735747471154
13.635384851849963        0.001743427078836511     0.6138397023199539       2387.737457510568        0.024273740738852512     0.001743427078836511     0.6138397023199539
13.774119729911222        0.0017657812194943384    0.6260498382216029       2387.7430320608673       0.02411972991122363      0.0017657812194943384    0.6260498382216029
13.912841629396754        0.0017880471194529094    0.6383661551761012       2387.7483670928323       0.02395274050786521      0.0017880471194529094    0.6383661551761012
14.051550550306553        0.0018102247787122239    0.6507886531834488       2387.7534626064626       0.02377277252877725      0.0018102247787122239    0.6507886531834488
14.190246492640627        0.0018323141972722817    0.6633173322436456       2387.758318601758        0.023579825973959745     0.0018323141972722817    0.6633173322436456
14.328929456398967        0.0018543153751330833    0.6759521923566918       2387.7629350787197       0.023373900843412707     0.0018543153751330833    0.6759521923566918
14.467599441581582        0.001876228312294628     0.6886932335225873       2387.7673120373465       0.02315499713713613      0.001876228312294628     0.6886932335225873
14.60625358499071         0.0018895467194967126    0.7015513212216915       2387.764032690586        0.022920251657376933     0.0018895467194967126    0.7015513212216915
14.744896610444366        0.0019045783063056437    0.7145092702389128       2387.7609641879935       0.022674388222141986     0.0019045783063056437    0.7145092702389128
14.88352851794254         0.0019213230727214204    0.7275670805742511       2387.7581065295703       0.022417406831431286     0.0019213230727214204    0.7275670805742511
15.022149307485243        0.0019397810187440443    0.7407247522277065       2387.7554597153153       0.02214930748524483      0.0019397810187440443    0.7407247522277065
15.16075897907247         0.0019599521443735145    0.7539822851992791       2387.753023745229        0.021870090183582623     0.0019599521443735145    0.753982285199279
15.299357532704223        0.0019818364496098305    0.7673396794889688       2387.7507986193104       0.02157975492644466      0.0019818364496098305    0.7673396794889688
15.437944968380496        0.0020054339344529933    0.7807969350967757       2387.748784337561        0.02127830171383095      0.0020054339344529933    0.7807969350967757
15.576521286101297        0.002030744598903002     0.7943540520226996       2387.74698089998         0.02096573054574148      0.002030744598903002     0.7943540520226996
18.898497708986827        0.0025435660565163044    1.14662794573342         2387.8176176932343       0.009608820097939242     0.0025435660565163044    1.14662794573342
19.036764406726107        0.002567578912506407     1.1623255995316593       2387.815326304212        0.008986628948326783     0.002567578912506407     1.1623255995316593
19.175019385524028        0.0025949494109940886    1.178097406566404        2387.8131833352695       0.00835271885736085      0.0025949494109940886    1.178097406566404
19.313262645380597        0.002625677551979349     1.193943366837655        2387.811188786408        0.00770708982504144      0.002625677551979349     1.193943366837655
19.45149418629581         0.002659763335462188     1.2098634803454114       2387.809342657627        0.007049741851368558     0.002659763335462188     1.2098634803454114
19.589714008269674        0.0026972067614426058    1.2258577470896734       2387.8076449489267       0.006380674936342203     0.0026972067614426053    1.2258577470896734
19.727922111302185        0.0027380078299206016    1.2419261670704411       2387.806095660307        0.0056998890799623714    0.0027380078299206016    1.2419261670704411
19.86611849539334         0.002782166540896177     1.258068740287715        2387.804694791768        0.005007384282229067     0.002782166540896177     1.258068740287715
20.00430316054314         0.002829682894369331     1.2742854667414945       2387.8034423433096       0.0043031605431422875    0.002829682894369331     1.2742854667414945
17.79194733601033         0.0023727042491557392    1.023774880880724        2387.8060562252067       0.014169558232553886     0.0023727042491557392    1.023774880880724
17.930307141350426        0.0023914222764256955    1.03884821445173         2387.8067186356716       0.013640474683756613     0.0023914222764256955    1.03884821445173
18.06865522991393         0.0024108945033099703    1.0540024907471874       2387.8076046955757       0.013099674358379467     0.0024108945033099703    1.0540024907471874
18.206991601700867        0.002431120929808563     1.0692377097670969       2387.80871440492         0.012547157256422447     0.002431120929808563     1.0692377097670969
18.345316256711218        0.002452101555921475     1.0845538715114578       2387.8100477637036       0.011982923377885554     0.002452101555921475     1.0845538715114578
18.483629194944992        0.0024738363816487045    1.0999509759802708       2387.811604771927        0.011406972722768787     0.0024738363816487045    1.0999509759802708
18.621930416402183        0.002496325406990253     1.1154290231735353       2387.8133854295897       0.010819305291072143     0.002496325406990253     1.1154290231735353
18.760219921082793        0.0025195686319461194    1.130988013091252        2387.8153897366924       0.01021992108279563      0.0025195686319461194    1.130988013091252
15.715074354727614        0.0020428547021430162    0.8080087052244967       2387.7485234974947       0.020629910283173528     0.0020428547021430162    0.8080087052244967
15.853616266694786        0.002057222408013661     0.821756531495592        2387.749669673939        0.020282933361451896     0.002057222408013661     0.8217565314955919
15.992147022002797        0.0020738477165149383    0.835597530835985        2387.7504194293124       0.01992479978057658      0.0020738477165149383    0.835597530835985
16.130666620651656        0.0020927306276468465    0.8495317032456761       2387.7507727636157       0.019555509540547585     0.0020927306276468465    0.8495317032456761
16.269175062641363        0.0021138711414093857    0.8635590487246652       2387.750729676848        0.01917506264136491      0.0021138711414093857    0.8635590487246652
16.40767234797192         0.0021372692578025564    0.877679567272952        2387.75029016901         0.01878345908302855      0.0021372692578025564    0.8776795672729519
16.546158476643317        0.0021629249768263586    0.8918932588905368       2387.749454240101        0.018380698865538517     0.0021629249768263586    0.8918932588905368
16.684633448655564        0.0021908382984807922    0.9062001235774196       2387.748221890122        0.017966781988894797     0.0021908382984807922    0.9062001235774196
16.823086159085307        0.0022050519846577373    0.920595976915644        2387.753179854064        0.017530603529750784     0.0022050519846577373    0.920595976915644
16.961527876797795        0.0022216998301653745    0.9350778277752079       2387.758786768847        0.017083432353350025     0.0022216998301653745    0.9350778277752079
17.099958601793023        0.0022407818350037045    0.9496456761561113       2387.7650426344717       0.01662526845969253      0.002240781835003705     0.9496456761561113
17.238378334070998        0.002262297999172727     0.9642995220583546       2387.7719474509368       0.016156111848778288     0.002262297999172727     0.9642995220583546
17.376787073631718        0.002286248322672441     0.9790393654819374       2387.779501218243        0.015675962520607302     0.0022862483226724416    0.9790393654819374
17.515184820475177        0.0023126328055028487    0.99386520642686         2387.78770393639         0.015184820475179573     0.0023126328055028482    0.99386520642686
17.65357157460138         0.0023414514476639476    1.0087770448931221       2387.7965556053778       0.0146826857124951       0.0023414514476639476    1.0087770448931221
20.142561654455537        0.002882242800138067     1.2905975284496476       2387.8082468416433       0.0036727655666465115    0.002882242800138067     1.2905975284496476
20.28080853715198         0.002931019846835214     1.306999213136904        2387.8143487450593       0.003030759374198765     0.002931019846835214     1.306999213136904
20.419043808632466        0.0029760140344607723    1.323490520803263        2387.8217480535586       0.0023771419657990455    0.002976014034460772     1.323490520803263
20.557267468897006        0.0030172253630147403    1.3400714514487249       2387.8304447671403       0.0017119133414473548    0.0030172253630147403    1.3400714514487249
20.69547951794559         0.00305465383249712      1.35674200507329         2387.840438885805        0.0010350735011436924    0.00305465383249712      1.35674200507329
20.833679955778223        0.00308829944290791      1.3735021816769577       2387.8517304095526       3.466224448880579E-4     0.00308829944290791      1.3735021816769577
20.971868782394903        0.003118162194247111     1.3903519812597285       2387.8643193383828       -3.534398273195483E-4    0.003118162194247111     1.3903519812597287
21.11004599779563         0.0031442420865147227    1.4072914038216022       2387.878205672296        -0.0010651133154791262   0.0031442420865147227    1.4072914038216022
26.625334044859304        0.004281240635494699     2.143048916207604        2388.1135139075755       -0.04133262180735916     0.004281240635494699     2.143048916207604
26.762965392571882        0.004313017191296812     2.162486958391549        2388.1280125832373       -0.04259016298367176     0.004313017191296813     2.162486958391549
26.90058963495875         0.0043443926410779545    2.1819523847676097       2388.1439312853954       -0.04385480948569037     0.0043443926410779545    2.1819523847676097
27.03820677201991         0.004375366984838123     2.2014451953357854       2388.1612700140495       -0.045126561313415       0.004375366984838123     2.2014451953357854
27.17581680375537         0.004405940222577319     2.2209653900960764       2388.1800287691995       -0.046405418466845635    0.004405940222577319     2.2209653900960764
27.313419730165123        0.0044361123542955416    2.240512969048483        2388.200207550846        -0.047691380945982284    0.0044361123542955416    2.240512969048483
27.451015551249167        0.004465883379992793     2.260087932193005        2388.2218063589876       -0.04898444875082495     0.004465883379992793     2.260087932193005
27.588604267007508        0.004495253299669069     2.2796902795296425       2388.2448251936257       -0.05028462188137362     0.004495253299669069     2.279690279529642
27.726185877440145        0.004524222113324375     2.299320011058395        2388.26926405476         -0.05159190033762831     0.004524222113324375     2.299320011058395
21.2481888385422          0.0031684429679476036    1.424345490889367        2387.877554924342        -0.001811161457795591    0.003168442967947603     1.4243454908893671
21.3863179397487          0.0031930474735485837    1.4414791525619448       2387.875747413826        -0.002570949140187861    0.0031930474735485832    1.4414791525619448
21.52443330141512         0.003218055603317664     1.4586923888393362       2387.8727831407464       -0.003344476362655936    0.0032180556033176645    1.4586923888393362
21.662534923541465        0.0032434673572548454    1.4759851997215403       2387.8686621051056       -0.004131743125199815    0.0032434673572548454    1.4759851997215403
21.800622806127734        0.003269282735360127     1.4933575852085577       2387.863384306902        -0.0049327494278195005   0.003269282735360127     1.4933575852085577
21.938696949173927        0.003295501737633509     1.5108095453003878       2387.8569497461363       -0.00574749527051499     0.003295501737633509     1.5108095453003878
22.076757352680048        0.003322124364074991     1.5283410799970314       2387.849358422808        -0.006575980653286284    0.003322124364074991     1.5283410799970314
22.214804016646088        0.0033491506146845736    1.545952189298488        2387.8406103369175       -0.007418205576133384    0.0033491506146845736    1.545952189298488
24.42169120062111         0.0038229760233010647    1.837427214583201        2387.91603124865         -0.0227532438233266      0.0038229760233010647    1.837427214583201
24.55949878494093         0.0038534631874362468    1.8561841764114562       2387.9256047537533       -0.023834548392398916    0.0038534631874362468    1.8561841764114562
24.697296209719703        0.0038835559460033944    1.874989165749244        2387.934994454404        -0.02492601250251244     0.0038835559460033944    1.874989165749244
24.835083474957443        0.0039132542990025065    1.893842182596564        2387.9442003506033       -0.02602763615366716     0.0039132542990025065    1.893842182596564