% Model:              20-15-10--200%--10-10-10.mph
% Version:            COMSOL 6.1.0.252
% Date:               Sep 6 2024, 16:20
% Dimension:          3
% Nodes:              217
% Expressions:        4
% Description:        线
% x                       y                        z                        磁标势                      u                        v                        w
2.2347480599238794        0.0013429230937549372    0.02819299158252818      3183.0719707890767       0.012525837701657357     0.0013429230937549372    0.02819299158252818
2.374432765033006         0.0013354790555131313    0.03205277943737491      3183.116398914657        0.013321653921895134     0.0013354790555131313    0.0320527794373749
2.514106221689482         0.0013282616369750414    0.036150090052508785     3183.157438051655        0.014106221689482518     0.0013282616369750414    0.036150090052508785
2.6537684298933084        0.0013212708381406678    0.04048492342792982      3183.195088200071        0.01487954100441951      0.001321270838140668     0.04048492342792982
2.7934193896444834        0.0013145066590100108    0.04505727956363803      3183.2293493599045       0.015641611866706106     0.0013145066590100108    0.04505727956363803
2.9330591009430087        0.00130796909958307      0.049867158459633396     3183.2602215311554       0.01639243427634231      0.00130796909958307      0.049867158459633396
3.0726875637888833        0.0013016581598598457    0.05491456011591592      3183.2877047138245       0.01713200823332813      0.0013016581598598454    0.054914560115915924
3.2123047781821077        0.0012955738398403374    0.06019948453248561      3183.311798907911        0.017860333737663547     0.0012955738398403374    0.0601994845324856
3.351910744122682         0.0012897161395245453    0.06572193170934246      3183.3325041134153       0.01857741078934858      0.0012897161395245453    0.06572193170934246
8.92154468772326          0.0011424560720676115    0.46634966760826313      3183.5841342805493       0.0326557988343722       0.0011424560720676115    0.46634966760826313
9.060363055518545         0.0011398514808934042    0.48048353150119544      3183.5858705942414       0.03258527774076718      0.001139851480893404     0.48048353150119544
9.199161127513518         0.0011438999114701334    0.4948060515355486       3183.587604744787        0.0324944608468508       0.0011438999114701334    0.4948060515355486
9.337938903708178         0.001154601363797799     0.5093172277113225       3183.5893367321846       0.032383348152623066     0.001154601363797799     0.5093172277113225
9.47669638410253          0.0011719558378764012    0.5240170600285171       3183.591066556435        0.03225193965808399      0.0011719558378764012    0.5240170600285171
9.615433568696568         0.0011959633337059398    0.5389055484871325       3183.5927942175385       0.03210023536323355      0.0011959633337059398    0.5389055484871325
9.754150457490296         0.0012266238512864153    0.5539826930871685       3183.5945197154947       0.031928235268071765     0.001226623851286415     0.5539826930871685
9.892847050483711         0.0012639373906178268    0.5692484938286254       3183.5962430503037       0.03173593937259862      0.0012639373906178268    0.5692484938286254
10.031523347676815        0.001307903951700175     0.584702950711503        3183.5979642219654       0.031523347676814126     0.001307903951700175     0.584702950711503
3.4914935818705595        0.001287935011832206     0.07150003022393266      3183.3423319448834       0.019271359648337545     0.001287935011832206     0.07150003022393266
3.631062068679541         0.0012851048189339365    0.07750557566671731      3183.3509178482104       0.019950957568430232     0.0012851048189339365    0.07750557566671731
3.7706162045496265        0.0012812255608297364    0.08373856803769644      3183.358261823397        0.02061620454962664      0.0012812255608297362    0.08373856803769644
3.910155989480815         0.0012762972375196056    0.09019900733687006      3183.364363870442        0.021267100591926758     0.0012762972375196056    0.09019900733687006
4.049681423473108         0.0012703198490035446    0.09688689356423814      3183.369223989346        0.021903645695330598     0.0012703198490035443    0.09688689356423814
4.1891925065265045        0.0012632933952815527    0.10380222671980069      3183.3728421801097       0.022525839859838147     0.0012632933952815527    0.10380222671980069
4.3286892386410045        0.0012552178763536302    0.1109450068035577       3183.3752184427317       0.02313368308544942      0.0012552178763536302    0.1109450068035577
4.468171619816609         0.0012460932922197777    0.11831523381550918      3183.376352777213        0.02372717537216441      0.0012460932922197777    0.11831523381550918
4.607629885570364         0.001241595098724959     0.12593119288776597      3183.3952084008606       0.02429655223703057      0.001241595098724959     0.12593119288776597
4.747071411917895         0.001236801376143168     0.13376382096214987      3183.41294087834         0.024849189695672964     0.001236801376143168     0.13376382096214987
4.886496198859202         0.0012317121244744046    0.14181311803866084      3183.429550209652        0.025385087748091582     0.0012317121244744046    0.14181311803866084
5.025904246394286         0.0012263273437186685    0.15007908411729895      3183.4450363947954       0.025904246394286425     0.0012263273437186685    0.15007908411729895
5.165295554523146         0.0012206470338759596    0.15856171919806414      3183.459399433771        0.026406665634257497     0.0012206470338759596    0.15856171919806414
5.304670123245782         0.0012146711949462782    0.1672610232809564       3183.4726393265787       0.026892345468004796     0.0012146711949462782    0.16726102328095638
5.444027952562195         0.0012083998269296244    0.17617699636597578      3183.4847560732187       0.02736128589552832      0.0012083998269296241    0.17617699636597578
5.583369042472383         0.0012018329298259976    0.18530963845312226      3183.4957496736906       0.027813486916828074     0.0012018329298259976    0.18530963845312226
7.8101574555023605        0.0011612571503544175    0.35996590833926123      3183.491295347268        0.03237967772458002      0.0011612571503544175    0.35996590833926123
7.949155118701239         0.001157291617834443     0.3725905057574635       3183.506892281141        0.032488452034567704     0.0011572916178344433    0.37259050575746344
8.08813156499404          0.0011537876275242189    0.38540749531578655      3183.521348624382        0.03257600943848007      0.0011537876275242189    0.3854074953157866
8.227086794380766         0.0011507451794237438    0.3984168770142305       3183.534664376991        0.03264234993631709      0.0011507451794237438    0.39841687701423045
8.366020806861414         0.0011481642735330184    0.4116186508527953       3183.546839538967        0.032687473528078784     0.0011481642735330184    0.4116186508527953
8.504933602435989         0.0011460449098520422    0.425012816831481        3183.5578741103113       0.032711380213765136     0.0011460449098520424    0.425012816831481
8.643825181104487         0.001144387088380816     0.43859937495028745      3183.5677680910226       0.03271406999337616      0.0011443870883808159    0.43859937495028745
8.782695542866911         0.001143190809119339     0.45237832520921495      3183.576521481102        0.03269554286691185      0.001143190809119339     0.4523783252092149
5.722688254012686         0.0011983025443568153    0.19467957446540615      3183.4972537460603       0.028243809568240706     0.0011983025443568155    0.19467957446540615
5.861988499420474         0.0011950464201105906    0.20425628337129992      3183.497550282829        0.02865516608713931      0.0011950464201105906    0.20425628337129992
6.001269778695748         0.0011920645570873225    0.21403976517080356      3183.496639283995        0.029047556473523885     0.0011920645570873225    0.21403976517080356
6.140532091838507         0.001189356955287012     0.224030019863917        3183.4945207495603       0.029420980727394432     0.001189356955287012     0.224030019863917
6.279775438848752         0.0011869236147096585    0.2342270474506403       3183.4911946795237       0.02977543884875095      0.0011869236147096585    0.2342270474506403
6.418999819726484         0.0011847645353552623    0.2446308479309735       3183.4866610738854       0.03011093083759344      0.0011847645353552621    0.2446308479309735
6.558205234471702         0.001182879717223823     0.2552414213049165       3183.4809199326455       0.030427456693921905     0.001182879717223823     0.2552414213049165
6.697391683084405         0.001181269160315341     0.2660587675724693       3183.473971255804        0.03072501641773634      0.001181269160315341     0.2660587675724693
6.8365530361777695        0.0011698198323989847    0.2771010688987347       3183.481531294048        0.030997480622212217     0.0011698198323989847    0.27710106889873465
6.975695637402242         0.0011609270263886972    0.28834225344488107      3183.487550038918        0.03125119295779655      0.0011609270263886972    0.28834225344488107
7.114819486757825         0.0011545907422844783    0.2997823212109085       3183.492027490413        0.031486153424489335     0.0011545907422844783    0.2997823212109085
7.253924584244514         0.0011508109800863287    0.3114212721968169       3183.494963648533        0.03170236202229056      0.0011508109800863287    0.3114212721968169
7.393010929862313         0.0011495877397942477    0.32325910640260647      3183.4963585132787       0.03189981875120025      0.0011495877397942477    0.32325910640260647
7.5320785236112195        0.0011509210214082353    0.33529582382827694      3183.49621208465         0.032078523611218386     0.0011509210214082353    0.335295823828277
7.671127365491236         0.001154810824928292     0.34753142447382857      3183.494524362646        0.032238476602344975     0.001154810824928292     0.34753142447382857
0                         0                        0                        3180.915019055064        0                        0                        0
0.13957350187645368       3.8351103969293265E-4    1.1626797350833774E-6    3181.19927200078         6.846129875646916E-4     3.8351103969293265E-4    1.162679735083351E-6
0.2791603229862331        7.088716119606308E-4     2.2926336297371356E-4    3181.4629494085852       0.001382545208455189     7.088716119606308E-4     2.2926336297371356E-4
0.41876046332933836       9.760817168030942E-4     6.843020497158909E-4     3181.7060512784783       0.0020937966626714917    9.760817168030942E-4     6.843020497158909E-4
0.5583739229057694        0.0011851413542203232    0.0013662787399616148    3181.9285776104603       0.0028183673502136003    0.0011851413542203232    0.0013662787399616148
0.6980007017155262        0.0013360505242123173    0.002275193433710886     3182.13052840453         0.0035562572710815146    0.0013360505242123173    0.002275193433710886
0.837640799758609         0.0014288092267790771    0.0034110461309637035    3182.311903660689        0.0043074664252752345    0.0014288092267790771    0.0034110461309637035
0.9772942170350174        0.001463417461920602     0.004773836831720069     3182.4727033789363       0.005071994812794759     0.001463417461920602     0.004773836831720069
1.1169609535447516        0.0014398752296368928    0.00636356553597998      3182.6129275592716       0.00584984243364009      0.0014398752296368928    0.00636356553597998
1.256713339354087         0.0014211899269834592    0.008220843381016796     3182.6932961104576       0.0067133393540867925    0.0014211899269834592    0.008220843381016796
1.3964574401600098        0.0014043807059495083    0.010327092771991245     3182.767096619512        0.007568551271120767     0.0014043807059495083    0.010327092771991245
1.5361932559625195        0.00138944756653504      0.012682313708903324     3182.834329086435        0.008415478184742014     0.00138944756653504      0.012682313708903324
1.675920786761617         0.0013763905087400543    0.015286506191753034     3182.8949935112264       0.009254120094950536     0.0013763905087400543    0.015286506191753034
1.8156400325573014        0.0013652095325645509    0.01813967022054037      3182.949089893886        0.010084477001746332     0.0013652095325645509    0.01813967022054037
1.9553509933495734        0.0013559046380085306    0.021241805795265342     3182.9966182344147       0.0109065489051294       0.0013559046380085306    0.021241805795265342
2.0950536691384327        0.0013484758250719925    0.024592912915927946     3183.0375785328115       0.011720335805099742     0.0013484758250719925    0.024592912915927946
11.14101098790229         0.001503758005805756     0.7160379232660572       3183.6006237460992       0.029899876791176002     0.001503758005805756     0.7160379232660572
11.279578212032648        0.0015152922890900847    0.7334696529622943       3183.604441282812        0.029578212032647926     0.0015152922890900847    0.7334696529622943
11.418111471626457        0.0015264791826531494    0.7511095696056439       3183.607916974615        0.029222582737566664     0.0015264791826531494    0.7511095696056439
11.55661076668371         0.0015373186864949498    0.7689576731961062       3183.6110508215093       0.02883298890593223      0.0015373186864949498    0.7689576731961062
11.69507609720441         0.0015478108006154866    0.787013963733681        3183.613842823493        0.028409430537744612     0.0015478108006154866    0.787013963733681
11.833507463188557        0.0015579555250147593    0.8052784412183684       3183.616292980568        0.027951907633003814     0.0015579555250147593    0.8052784412183684
11.971904864636153        0.0015677528596927679    0.8237511056501685       3183.618401292733        0.02746042019170983      0.0015677528596927679    0.8237511056501685
12.110268301547194        0.0015772028046495124    0.8424319570290812       3183.620167759989        0.02693496821386267      0.0015772028046495124    0.8424319570290812
12.248597773921682        0.0015863053598849932    0.8613209953551065       3183.621592382335        0.02637555169946233      0.0015863053598849932    0.8613209953551065
12.386890626568508        0.0015992460293532027    0.8804455927380076       3183.6303348290244       0.02577951545739982      0.001599246029353203     0.8804455927380076
12.525150837038655        0.001611659603400599     0.8997651612625917       3183.6372389757553       0.025150837038659047     0.001611659603400599     0.8997651612625917
12.663378405332129        0.0016235460820271817    0.919279700928859        3183.6423048225274       0.02448951644324001      0.0016235460820271817    0.919279700928859
12.80157333144892         0.0016349054652329512    0.9389892117368094       3183.6455323693413       0.023795553671142715     0.0016349054652329512    0.9389892117368094
12.939735615389035        0.0016457377530179073    0.9588936936864428       3183.6469216161963       0.02306894872236716      0.0016457377530179073    0.9588936936864428
13.077865257152467        0.0016560429453820501    0.9789931467777593       3183.646472563093        0.022309701596913336     0.0016560429453820504    0.9789931467777593
13.215962256739225        0.0016658210423253796    0.999287571010759        3183.644185210031        0.021517812294781256     0.0016658210423253796    0.999287571010759
13.354026614149305        0.0016750720438478957    1.0197769663854417       3183.6400595570103       0.020693280815970917     0.0016750720438478957    1.0197769663854417
10.170307853479125        0.0013558120571159134    0.6003413466126482       3183.5922339362373       0.03141896459023405      0.0013558120571159134    0.6003413466126482
10.309064201917398        0.0013970269200594973    0.6162021641332717       3183.5882358580066       0.03128642413961835      0.0013970269200594973    0.6162021641332717
10.447792392991637        0.0014315485405309264    0.6322854032733735       3183.585969987276        0.031125726324967018     0.0014315485405309264    0.6322854032733735
10.586492426701838        0.0014593769185302014    0.6485910640329536       3183.585436324043        0.03093687114628007      0.0014593769185302014    0.6485910640329536
10.725164303048004        0.0014805120540573218    0.6651191464120121       3183.586634868309        0.030719858603557488     0.0014805120540573218    0.6651191464120121
10.863808022030135        0.0014949539471122877    0.6818696504105488       3183.5895656200737       0.030474688696799285     0.0014949539471122877    0.6818696504105488
11.002423583648229        0.0015027025976950992    0.6988425760285639       3183.594228579337        0.03020136142600546      0.0015027025976950992    0.6988425760285639
13.492041073331873        0.0016884201346342215    1.0404844342658786       3183.647461089164        0.019818851109651783     0.0016884201346342215    1.0404844342658786
13.630021417392243        0.0017013578669785798    1.0613732288800937       3183.654546485328        0.018910306281131578     0.0017013578669785798    1.0613732288800937
13.76796764633041         0.00171388524088097      1.0824433502280875       3183.661315745502        0.0179676463304103       0.0017138852408809702    1.0824433502280872
13.905879760146377        0.0017260022563413933    1.103694798309859        3183.6677688696864       0.016990871257487952     0.0017260022563413933    1.103694798309859
14.04375775884014         0.0017377089133598486    1.1251275731254093       3183.6739058578805       0.01597998106236453      0.0017377089133598486    1.1251275731254093
14.181601642411705        0.0017490052119363366    1.146741674674738        3183.6797267100856       0.014934975745040036     0.0017490052119363366    1.146741674674738
14.31941141086107         0.0017598911520708567    1.1685371029578453       3183.6852314263          0.013855855305514473     0.0017598911520708567    1.168537102957845
14.457187064188233        0.0017703667337634094    1.1905138579747305       3183.690420006525        0.012742619743787839     0.0017703667337634094    1.1905138579747305
14.594921182132722        0.0017662097635852787    1.2126914516414298       3183.685525994114        0.011587848799388616     0.0017662097635852787    1.2126914516414298
14.732624413330184        0.0017647637089713945    1.2350394688910857       3183.6809174742343       0.010402191107961136     0.0017647637089713945    1.2350394688910857
14.870296757780618        0.0017660285699217571    1.2575579097236982       3183.6765944468884       0.0091856466695054       0.0017660285699217571    1.2575579097236982
15.007938215484021        0.0017700043464363663    1.2802467741392671       3183.672556912074        0.007938215484021406     0.0017700043464363663    1.2802467741392671
15.145548786440399        0.001776691038515222     1.3031060621377928       3183.6688048697924       0.006659897551509156     0.001776691038515222     1.3031060621377926
15.283128470649746        0.0017860886461583242    1.3261357737192747       3183.6653383200432       0.005350692871968647     0.0017860886461583242    1.3261357737192747
15.420677268112065        0.0017981971693656735    1.349335908883713        3183.6621572628264       0.004010601445399882     0.0017981971693656735    1.349335908883713
15.558195178827358        0.001813016608137269     1.372706467631108        3183.659261698142        0.0026396232718028587    0.001813016608137269     1.372706467631108
18.848517560707357        0.0019474478570413688    1.9793872738917053       3183.737971554122        -0.04037132818153093     0.0019474478570413688    1.9793872738917053
18.985220518717448        0.001955398263676398     2.0063978644190064       3183.734363787141        -0.042557259060329276    0.001955398263676398     2.0063978644190064
19.121892782534317        0.0019689316454207717    2.033533992292188        3183.730916587561        -0.04477388413234825     0.0019689316454207717    2.0335339922921882
19.258534352157966        0.0019880480022744875    2.0607956575112505       3183.727629955383        -0.04702120339758787     0.0019880480022744875    2.0607956575112505
19.395145227588394        0.0020127473342375466    2.088182860076193        3183.7245038906067       -0.04929921685604813     0.0020127473342375466    2.088182860076193
19.531725408825604        0.0020430296413099483    2.1156955999870166       3183.721538393232        -0.05160792450772902     0.0020430296413099483    2.115695599987016
19.668274895869594        0.0020788949234916932    2.14333387724372         3183.718733463259        -0.053947326352630554    0.0020788949234916932    2.14333387724372
19.80479368872036         0.0021203431807827813    2.1710976918463043       3183.716089100688        -0.05631742239075272     0.0021203431807827813    2.1710976918463047
19.941281787377903        0.0021673744131832126    2.19898704379477         3183.7136053055183       -0.05871821262209553     0.0021673744131832126    2.19898704379477
17.75379767770663         0.0019153579798803565    1.7679327983723723       3183.7280111537398       -0.023980100071145042    0.0019153579798803565    1.7679327983723723
17.890746782159972        0.0019155667620226917    1.7938839630454797       3183.7282823623527       -0.025919884506692262    0.0019155667620226922    1.7938839630454797
18.027664709733816        0.0019168619591658248    1.8199724547948188       3183.7288318113756       -0.027890845821739767    0.0019168619591658248    1.8199724547948188
18.164551460428157        0.0019192435713097553    1.8461982736203888       3183.729659500809        -0.029892984016287573    0.0019192435713097553    1.8461982736203888
18.301407034242995        0.0019227115984544834    1.8725614195221898       3183.7307654306514       -0.03192629909033566     0.0019227115984544834    1.8725614195221898
18.438231431178334        0.0019272660406000088    1.899061892500222        3183.7321496009044       -0.03399079104388404     0.0019272660406000088    1.899061892500222
18.575024651234177        0.001932906897746331     1.9256996925544854       3183.733812011567        -0.03608645987693271     0.001932906897746331     1.9256996925544851
18.711786694410517        0.001939634169893451     1.95247481968498         3183.7357526626397       -0.038213305589481675    0.0019396341698934515    1.9524748196849797
15.69566010678139         0.001805064515644531     1.396243310595673        3183.660694248945        0.0012156623369449422    0.001805064515644531     1.3962433105956733
15.833094243498584        0.0018007714167676497    1.419938874554107        3183.6616111469593       -2.390898347481009E-4    0.0018007714167676497    1.419938874554107
15.970497588978946        0.0018001373115066246    1.4437931595064095       3183.6620123921844       -0.0017246332432762708   0.0018001373115066246    1.4437931595064097
16.10787014322247         0.0018031621998614565    1.4678061654525807       3183.6618979846203       -0.003240967888639567    0.0018031621998614565    1.4678061654525807
16.245211906229162        0.0018098460818321447    1.4919778923926208       3183.661267924267        -0.00478809377083799     0.0018098460818321447    1.4919778923926208
16.382522877999016        0.0018201889574186892    1.5163083403265296       3183.660122211125        -0.006366010889871539    0.0018201889574186892    1.5163083403265296
16.51980305853204         0.0018341908266210905    1.5407975092543071       3183.6584608451935       -0.007974719245740215    0.0018341908266210907    1.5407975092543071
16.657052447828224        0.0018518516894393486    1.5654453991759536       3183.656283826473        -0.009614218838444018    0.0018518516894393486    1.5654453991759536
16.79425115305376         0.001845867224397633     1.590244523385081        3183.662217158088        -0.011304402501797567    0.001845867224397633     1.5902445233850808
16.931419700710514        0.0018438606883121578    1.6151898763629016       3183.6690169423587       -0.01302474373393228     0.0018438606883121578    1.6151898763629016
17.068558090798483        0.0018458320811829232    1.6402814581094145       3183.676683179284        -0.014775242534848161    0.0018458320811829236    1.6402814581094145
17.205666323317676        0.001851781403009929     1.6655192686246205       3183.685215868865        -0.016555898904545206    0.001851781403009929     1.6655192686246205
17.342744398268085        0.001861708653793175     1.6909033079085194       3183.6946150111007       -0.01836671284302342     0.0018617086537931755    1.6909033079085192
17.479792315649714        0.001875613833532662     1.7164335759611107       3183.704880605992        -0.020207684350282792    0.001875613833532662     1.7164335759611107
17.616810075462563        0.0018934969422283892    1.742110072782395        3183.716012653538        -0.022078813426323337    0.0018934969422283892    1.742110072782395
20.07788197711345         0.0022228198978010145    2.2270513987539258       3183.7189994192895       -0.06100691177544031     0.0022228198978010145    2.2270513987539258
20.21444886864681         0.002271558254333574     2.25526767125824         3183.726125111101        -0.06332890913096689     0.002271558254333574     2.25526767125824
20.350982461977992        0.0023135894827808912    2.283635861307714        3183.7349823809514       -0.0656842046886753      0.0023135894827808912    2.283635861307714
20.48748275710699         0.002348913583142965     2.312155968902346        3183.745571228842        -0.06807279844856548     0.002348913583142965     2.312155968902346
20.623949754033806        0.002377530555419796     2.340827994042138        3183.7578916547723       -0.07049469041063747     0.002377530555419796     2.3408279940421375
20.760383452758443        0.002399440399611385     2.3696519367270876       3183.7719436587427       -0.07294988057489127     0.0023994403996113844    2.3696519367270876
20.896783853280898        0.0024146431157177303    2.398627796957197        3183.787727240753        -0.07543836894132686     0.0024146431157177303    2.398627796957197
21.03315095560117         0.0024231387037388333    2.427755574732465        3183.805242400803        -0.07796015550994426     0.0024231387037388333    2.427755574732465
26.458304965613895        0.002793833749730051     3.6906624863977253       3184.0307904349042       -0.20836170105276977     0.002793833749730051     3.6906624863977253
26.593330107713236        0.0028063339191302414    3.72397926385935         3184.04451771163         -0.21222544784231812     0.0028063339191302414    3.72397926385935
26.728338333069033        0.002818060572221847     3.7573415568369986       3184.0595002435457       -0.21610611137540592     0.002818060572221847     3.7573415568369986
26.863329641681297        0.0028290137090048665    3.7907493653306714       3184.0757380306513       -0.22000369165203332     0.0028290137090048665    3.7907493653306714
26.998304033550017        0.0028391933294793013    3.824202689340369        3184.0932310729477       -0.2239181886722002      0.0028391933294793013    3.824202689340369
27.133261508675197        0.0028485994336451504    3.857701528866091        3184.111979370434        -0.22784960243590666     0.0028485994336451504    3.857701528866091
27.268202067056837        0.0028572320215024143    3.8912458839078377       3184.1319829231097       -0.23179793294315265     0.0028572320215024148    3.8912458839078377
27.403125708694944        0.0028650910930510926    3.9248357544656085       3184.1532417309763       -0.23576318019393816     0.0028650910930510926    3.9248357544656085
27.538032433589507        0.002872176648291186     3.9584711405394044       3184.1757557940323       -0.2397453441882632      0.002872176648291186     3.9584711405394044
21.169441708173714        0.0024282950983850124    2.4570757019109886       3183.803369220561        -0.08055829182628632     0.002428295098385013     2.457075701910989
21.305696489976917        0.002433977114506704     2.4865299913869303       3183.799961929992        -0.0831923989119763      0.002433977114506704     2.4865299913869303
21.441915301010763        0.0024401847521039076    2.5161184431602894       3183.7950205290967       -0.0858624767670142      0.0024401847521039076    2.5161184431602894
21.578098141275266        0.0024469180111766236    2.545841057231067        3183.788545017874        -0.08856852539140003     0.0024469180111766236    2.545841057231067
21.714245010770423        0.002454176891724852     2.5756978335992615       3183.7805353963245       -0.09131054478513377     0.002454176891724852     2.5756978335992615
21.85035590949623         0.0024619613937485927    2.6056887722648736       3183.7709916644485       -0.09408853494821544     0.002461961393748593     2.605688772264874
21.986430837452687        0.0024702715172478457    2.635813873227904        3183.7599138222454       -0.09690249588064502     0.002470271517247846     2.6358138732279044
22.1224697946398          0.0024791072622226116    2.666073136488352        3183.747301869715        -0.09975242758242253     0.0024791072622226116    2.666073136488352
24.29434304646106         0.0026666964143671405    3.1665356588809472       3183.8224328875267       -0.15010139798337754     0.0026666964143671405    3.1665356588809472
24.429785862360074        0.002678684844529018     3.1987184508484146       3183.8329548528736       -0.1535474709732542      0.002678684844529018     3.198718450848415
24.56520317659394         0.0026898697925239194    3.2309816249887424       3183.8431086167043       -0.15701904562827942     0.0026898697925239194    3.2309816249887424
24.700594989162653        0.002700251258351845     3.26332518130193         3183.852894179018        -0.16051612194845322     0.002700251258351845     3.26332518130193