% Model:              cs1.33.mph
% Version:            COMSOL 6.1.0.252
% Date:               Sep 6 2024, 15:38
% Dimension:          3
% Nodes:              169
% Expressions:        4
% Description:        线
% x                       y                        z                        磁标势                      u                        v                        w
7.156279504883085         0.001363537348740972     0.07546770051600736      2387.652240726395        0.013422362025942781     0.001363537348740972     0.07546770051600736
7.33512480237085          0.0014018205868260095    0.07923280569478         2387.660689836999        0.013696230942280022     0.0014018205868260095    0.07923280569478
7.513965811418148         0.001441172326374181     0.08307891280383889      2387.669217850715        0.013965811418148512     0.001441172326374181     0.08307891280383889
7.692802532024976         0.0014815925673854877    0.08700602184318398      2387.677824767544        0.014231103453548256     0.0014815925673854879    0.08700602184318398
7.871634964191337         0.0015230813098599286    0.09101413281281533      2387.6865105874845       0.01449210704847925      0.0015230813098599286    0.09101413281281533
8.050463107917228         0.0015656385537975042    0.0951032457127329       2387.695275310538        0.014748822202941497     0.0015656385537975042    0.09510324571273289
8.22928696320265          0.0016092642991982146    0.0992733605429367       2387.7041189367033       0.015001248916934993     0.0016092642991982146    0.0992733605429367
8.408106530047606         0.0016539585460620594    0.10352447730342673      2387.7130414659814       0.015249387190459741     0.0016539585460620596    0.10352447730342673
8.58692180845209          0.0016997212943890387    0.107856595994203        2387.722042898372        0.015493237023515743     0.0016997212943890387    0.107856595994203
5.725372297668768         0.0010934123425886762    0.04841815648961249      2387.5618580154623       0.011086583383055024     0.0010934123425886762    0.04841815648961249
5.904250995599337         0.001123331750323333     0.05149827922331202      2387.5760288977995       0.011393852742195275     0.001123331750323333     0.05149827922331202
6.083125322950255         0.001154350077496384     0.054664422034040074     2387.5893789105735       0.011696751521684302     0.001154350077496384     0.054664422034040074
6.26199527972152          0.0011864673241078294    0.057916584921796646     2387.601908053785        0.011995279721522107     0.0011864673241078294    0.057916584921796646
6.440860865913136         0.0012196834901576693    0.06125476788658175      2387.6136163274327       0.012289437341708688     0.0012196834901576693    0.06125476788658175
6.6197220815251           0.0012539985756459032    0.06467897092839536      2387.624503731518        0.012579224382244047     0.0012539985756459032    0.06467897092839536
6.798578926557412         0.0012894125805725319    0.0681891940472375       2387.6345702660396       0.012864640843128182     0.0012894125805725319    0.0681891940472375
6.977431401010074         0.0013259255049375548    0.07178543724310817      2387.643815930999        0.013145686724361092     0.0013259255049375548    0.07178543724310817
4.294212947160882         8.874397768550251E-4     0.027050044285250777     2387.3837612989173       0.008498661446596991     8.874397768550251E-4     0.027050044285250777
4.473122446607737         9.095053334474908E-4     0.029401469298097286     2387.411123586403        0.00883673232202264      9.095053334474908E-4     0.029401469298097286
4.652027780159342         9.326226083611683E-4     0.03184420545742914      2387.4370286744843       0.009170637302200175     9.326226083611683E-4     0.03184420545742914
4.8309289478157           9.567916015960571E-4     0.03437825276324633      2387.4614765631604       0.009500376387129599     9.567916015960571E-4     0.03437825276324633
5.00982594957681          9.820123131521578E-4     0.037003611215548876     2387.484467252431        0.009825949576810909     9.820123131521578E-4     0.037003611215548876
5.188718785442672         0.00100828474302947      0.03972028081433676      2387.5060007422962       0.010147356871244104     0.00100828474302947      0.03972028081433676
5.367607455413285         0.001035608891227994     0.042528261559609995     2387.526077032757        0.010464598270429191     0.001035608891227994     0.042528261559609995
5.546491959488651         0.0010639847577477292    0.04542755345136858      2387.544696123812        0.010777673774366165     0.0010639847577477292    0.04542755345136857
2.8628209227143553        7.555679753580152E-4     0.011684838344998423     2387.130735015782        0.005678065571498163     7.555679753580152E-4     0.011684838344998423
3.0417580055485156        7.68578145899755E-4      0.013267720487573229     2387.168335422898        0.006043719834229799     7.68578145899755E-4      0.013267720487573229
3.2206913513031483        7.825808320544625E-4     0.014947107944421386     2387.2042295095216       0.006405637017434497     7.825808320544625E-4     0.014947107944421386
3.3996209599782543        7.975760338221374E-4     0.016723000715542898     2387.2384172756524       0.0067638171211122575    7.975760338221374E-4     0.016723000715542898
3.578546831573834         8.135637512027799E-4     0.018595398800937767     2387.2708987212905       0.007118260145263079     8.135637512027799E-4     0.018595398800937767
3.7574689660898866        8.3054398419639E-4       0.02056430220060599      2387.301673846436        0.007468966089886964     8.305439841963899E-4     0.02056430220060599
3.9363873635264115        8.485167328029675E-4     0.022629710914547563     2387.330742651089        0.00781593495498391      8.485167328029675E-4     0.022629710914547563
4.115302023883411         8.674819970225125E-4     0.02479162494276249      2387.3581051352494       0.008159166740553921     8.674819970225125E-4     0.024791624942762495
1.431239777858145         6.749216549807393E-4     0.0026531387677061614    2386.413568121785        0.0026683492867160983    6.749216549807393E-4     0.0026531387677061614
1.6101945971737042        6.863737028869791E-4     0.0034301557754676543    2386.5354617579956       0.003051740030846923     6.863737028869792E-4     0.0034301557754676548
1.7891473661439685        6.974339628334819E-4     0.004307728623057731     2386.64814174436         0.003433080429682586     6.974339628334818E-4     0.004307728623057731
1.9680980847689378        7.081024348202474E-4     0.005285857310476388     2386.7516080808787       0.0038123704832230872    7.081024348202472E-4     0.005285857310476388
2.1470467530486115        7.183791188472753E-4     0.0063645418377236305    2386.845860767551        0.004189610191468426     7.183791188472753E-4     0.0063645418377236305
2.32599337098299          7.282640149145663E-4     0.007543782204799454     2386.930899804378        0.0045647995544186035    7.282640149145662E-4     0.007543782204799454
2.504937938572074         7.377571230221197E-4     0.008823578411703862     2387.006725191359        0.004937938572073619     7.377571230221197E-4     0.00882357841170386
2.683880455815862         7.468584431699361E-4     0.01020393045843685      2387.0733369284935       0.005309027244433472     7.468584431699361E-4     0.010203930458436851
8.76573245263997          0.0017428907791089928    0.11226251860908197      2387.731344133571        0.015732452639966497     0.0017428907791089924    0.11226251860908197
8.944540262740611         0.0017900896519124796    0.11674593304312088      2387.7407328848276       0.015968834169181875     0.0017900896519124796    0.11674593304312088
9.12334523875402          0.0018413179127995       0.1213068392963197       2387.750209152142        0.016202381611161856     0.0018413179127995       0.1213068392963197
9.302147380680193         0.0018965755617700534    0.1259452373686785       2387.759772935514        0.016433094965906454     0.0018965755617700534    0.1259452373686785
9.48094668851913          0.00195586259882414      0.13066112726019719      2387.7694242349435       0.01666097423341566      0.00195586259882414      0.13066112726019716
9.659743162270832         0.00201917902396176      0.13545450897087577      2387.7791630504307       0.016886019413689484     0.00201917902396176      0.1354545089708758
9.8385368019353           0.0020865248371829135    0.14032538250071433      2387.788989381976        0.01710823050672792      0.0020865248371829135    0.14032538250071433
10.01732760751253         0.0021579000384875997    0.1452737478497128       2387.7989032295786       0.017327607512530964     0.0021579000384875997    0.1452737478497128
0                         0                        0                        2384.090179953904        0                        0                        0
0.17885270621543223       1.9295479003245556E-4    3.6059190005672676E-5    2384.5550679824546       2.812776440036029E-4     1.9295479003245556E-4    3.605919000567269E-5
0.3577203455785319        3.548839848763788E-4     1.5657071028494466E-4    2384.9701090088433       5.774884356746084E-4     3.548839848763788E-4     1.5657071028494466E-4
0.5366029180892987        4.857875845317698E-4     3.6153456083781597E-4    2385.3353030330704       8.886323750130166E-4     4.857875845317698E-4     3.6153456083781597E-4
0.7155004237477333        5.856655889986283E-4     6.509507416642865E-4     2385.6506500551363       0.0012147094620188277    5.856655889986283E-4     6.509507416642865E-4
0.894412862553835         6.545179982769546E-4     0.0010248192527643563    2385.9161500750406       0.0015557196966920412    6.545179982769546E-4     0.0010248192527643563
1.0733402345076044        6.923448123667484E-4     0.0014831400941380255    2386.1318030927837       0.0019116630790326577    6.923448123667484E-4     0.0014831400941380253
1.252282539609041         6.9914603126801E-4       0.002025913265785294     2386.297609108365        0.002282539609040677     6.9914603126801E-4       0.002025913265785294
11.448019634954262        0.00269421872755632      0.18813265099682294      2387.7989669137473       0.01944820638283093      0.00269421872755632      0.18813265099682294
11.626835829215247        0.002755814501022624     0.1939061101927482       2387.810407438483        0.01969297207239057      0.002755814501022624     0.1939061101927482
11.805645860099933        0.0028182643155038323    0.1997659881985327       2387.8214105013185       0.019931574385646647     0.0028182643155038323    0.1997659881985327
11.984449727608315        0.002881568170999943     0.20571228501417654      2387.831976102254        0.020164013322599164     0.002881568170999943     0.20571228501417652
12.163247431740391        0.0029457260675109574    0.21174500063967963      2387.84210424129         0.02039028888324812      0.0029457260675109574    0.21174500063967963
12.342038972496162        0.0030107380050368748    0.21786413507504204      2387.851794918426        0.020610401067593515     0.0030107380050368748    0.21786413507504204
12.520824349875635        0.0030766039835776952    0.22406968832026372      2387.8610481336623       0.02082434987563535      0.0030766039835776952    0.22406968832026375
12.699603563878801        0.0031433240031334187    0.23036166037534472      2387.8698638869987       0.02103213530737362      0.003143324003133419     0.23036166037534475
12.878376614505665        0.003210898063704046     0.236740051240285        2387.8782421784354       0.021233757362808334     0.003210898063704046     0.236740051240285
13.05714499007436         0.0032801466006250448    0.2432024907871402       2387.8749543819904       0.02143070436007408      0.003280146600625045     0.2432024907871402
13.235906709006773        0.003350177457683725     0.24974475763641985      2387.8723328389037       0.021620994721058294     0.003350177457683725     0.2497447576364199
13.414661771302903        0.0034209906348800856    0.256366851788124        2387.870377549174        0.021804628445760976     0.003420990634880086     0.25636685178812396
13.593410176962754        0.0034925861322141274    0.2630687732422525       2387.869088512802        0.021981605534182123     0.0034925861322141274    0.2630687732422525
13.772151925986321        0.00356496394968585      0.26985052199880544      2387.8684657297877       0.022151925986321742     0.00356496394968585      0.26985052199880544
13.95088701837361         0.0036381240872952534    0.27671209805778274      2387.8685092001315       0.02231558980217983      0.0036381240872952534    0.2767120980577828
14.129615454124615        0.0037120665450423376    0.28365350141918455      2387.8692189238327       0.022472596981756382     0.0037120665450423376    0.28365350141918455
14.308337233239337        0.003786791322927103     0.29067473208301076      2387.8705949008913       0.022622947525051403     0.003786791322927103     0.29067473208301076
10.196177602130462        0.0022367732750909297    0.15031157747825052      2387.7913295898747       0.017606173559031903     0.00223677327509093      0.15031157747825052
10.375023742123329        0.0023122655401314777    0.1554407023253171       2387.7859221216636       0.017880884980471856     0.0023122655401314777    0.1554407023253171
10.553866027491136        0.002384376833609242     0.16066112239091254      2387.7826808249456       0.01815174177685083      0.002384376833609242     0.16066112239091254
10.732704458233885        0.0024531071555242237    0.16597283767503687      2387.78160569972         0.018418743948168816     0.0024531071555242237    0.16597283767503687
10.911539034351572        0.0025184565058764224    0.17137584817769008      2387.7826967459873       0.01868189149442582      0.0025184565058764224    0.17137584817769008
11.090369755844195        0.0025804248846658375    0.17687015389887215      2387.785953963748        0.01894118441562184      0.0025804248846658375    0.17687015389887217
11.269196622711759        0.00263901229189247      0.18245575483858312      2387.7913773530013       0.01919662271175688      0.0026390122918924703    0.18245575483858312
17.16706129418132         0.005108393728370597     0.41273659041230776      2387.946753479008        0.024204151324173615     0.005108393728370597     0.41273659041230776
17.34567943206888         0.0051972847298974514    0.4209352863822044       2387.952079698653        0.024250860640307174     0.0051972847298974514    0.42093528638220434
17.524291486777944        0.0052869760368862056    0.42919307318164895      2387.957228616105        0.02429148677794264      0.0052869760368862056    0.42919307318164895
17.702897458308513        0.005377467649336859     0.4375099508106415       2387.9622002313645       0.02432602973708001      0.005377467649336859     0.43750995081064153
17.881497346660574        0.0054687595672494125    0.44588591926918214      2387.966994544431        0.02435448951771929      0.0054687595672494125    0.44588591926918214
18.060091151834143        0.005560851790623865     0.45432097855727066      2387.9716115553047       0.024376866119860483     0.005560851790623865     0.4543209785572707
18.238678873829215        0.0056537443194602174    0.46281512867490726      2387.976051263986        0.02439315954350358      0.0056537443194602174    0.46281512867490726
18.41726051264579         0.005747437153758471     0.47136836962209183      2387.9803136704736       0.02440336978864858      0.005747437153758471     0.47136836962209183
18.595836068283862        0.005841930293518622     0.4799807013988244       2387.984398774769        0.024407496855295495     0.005841930293518622     0.4799807013988244
14.487055905069584        0.0038634970600143685    0.2977709843877414       2387.8790264353406       0.022770190783869333     0.0038634970600143685    0.29777098438774136
14.665767843977914        0.003941037241413994     0.3049400345612717       2387.887387501593        0.02291070112077157      0.003941037241413994     0.3049400345612717
14.844473049964332        0.0040194118671259774    0.3121818826036018       2387.8956780996486       0.023044478535758094     0.0040194118671259774    0.3121818826036018
15.023171523028829        0.00409862093715032      0.3194965285147316       2387.9038982295074       0.023171523028828918     0.00409862093715032      0.3194965285147316
15.201863263171413        0.004178664451487021     0.3268839722946611       2387.91204789117         0.02329183459998404      0.004178664451487021     0.3268839722946611
15.380548270392081        0.0042595424101360795    0.33434421394339026      2387.9201270846356       0.02340541324922346      0.00425954241013608      0.33434421394339026
15.559226544690834        0.004341254813097498     0.34187725346091924      2387.9281358099047       0.023512258976547174     0.004341254813097498     0.34187725346091924
15.73789808606767         0.004423801660371276     0.3494830908472478       2387.936074066977        0.02361237178195519      0.004423801660371276     0.3494830908472478
15.916566464529904        0.004506265477118885     0.35715956905985613      2387.9355885743953       0.02370932167276093      0.004506265477118885     0.35715956905985613
16.09522827800699         0.004589617920081438     0.3649018213390427       2387.9356232015516       0.023799706578415684     0.004589617920081438     0.3649018213390427
16.27388352649892         0.004673858989258936     0.3727098476848077       2387.9361779484475       0.023883526498919463     0.004673858989258936     0.3727098476848077
16.452532210005703        0.00475898868465138      0.380583648097151        2387.937252815082        0.023960781434272254     0.00475898868465138      0.380583648097151
16.631174328527337        0.004845007006258766     0.3885232225760727       2387.9388478014553       0.02403147138447407      0.004845007006258767     0.3885232225760727
16.809809882063814        0.004931913954081099     0.3965285711215727       2387.940962907567        0.024095596349524896     0.004931913954081099     0.3965285711215727
16.98843887061514         0.005019709528118375     0.4045996937336511       2387.943598133418        0.024153156329424746     0.005019709528118375     0.4045996937336511
18.774405354556254        0.005933490200058859     0.48864415897586544      2387.98878177272         0.02440535455625914      0.005933490200058859     0.48864415897586544
18.952970142895254        0.006028632421580889     0.49736128925962253      2387.9953352248          0.024398714323831956     0.006028632421580889     0.49736128925962253
19.131530433300863        0.006127356958084708     0.5061320922500957       2388.0040591310103       0.024387576158013943     0.006127356958084709     0.5061320922500957
19.310086225773084        0.006229663809570321     0.5149565679472848       2388.01495349135         0.0243719400588051       0.006229663809570321     0.5149565679472848
19.488637520311915        0.006335552976037724     0.5238347163511898       2388.0280183058194       0.02435180602620543      0.006335552976037725     0.5238347163511899
19.667184316917353        0.00644502445748692      0.5327665374618112       2388.0432535744194       0.024327174060214927     0.00644502445748692      0.5327665374618112
19.845726615589403        0.006558078253917905     0.5417520312791485       2388.0606592971485       0.024298044160833594     0.006558078253917905     0.5417520312791484
20.024264416328062        0.006674714365330682     0.5507911978032016       2388.0802354740076       0.02426441632806143      0.006674714365330682     0.5507911978032016
21.452868620712664        0.007565431092160135     0.6254843113719522       2388.0684405852685       0.024297192141232746     0.007565431092160135     0.6254843113719522
21.631413246793933        0.007669028394580753     0.6351177341415905       2388.0827099754247       0.024270389651076245     0.007669028394580753     0.6351177341415903
21.80994984506131         0.007773131220571093     0.6448076886392264       2388.095970128207        0.02423555934702283      0.007773131220571093     0.6448076886392264
21.988478415514788        0.007877739570131157     0.6545541748648603       2388.1082210436143       0.024192701229072498     0.007877739570131157     0.6545541748648603
22.16699895815437         0.007982853443260945     0.6643571928184921       2388.1194627216473       0.02414181529722525      0.007982853443260945     0.6643571928184921
22.34551147298005         0.008088472839960455     0.6742167425001219       2388.1296951623062       0.024082901551481076     0.008088472839960455     0.6742167425001219
22.52401595999184         0.008194597760229688     0.6841328239097495       2388.1389183655906       0.024015959991839995     0.00819459776022969      0.6841328239097494
22.702512419189734        0.008301228204068646     0.6941054370473749       2388.147132331501        0.02394099061830199      0.008301228204068646     0.6941054370473749
22.881000850573724        0.008408364171477327     0.7041345819129983       2388.1543370600366       0.02385799343086707      0.008408364171477327     0.7041345819129983
23.05948369571834         0.00851648912907813      0.7142167457039388       2388.168371061395        0.02376941000405109      0.00851648912907813      0.7142167457039388
23.2379584923294          0.008625091506240263     0.7243454615211454       2388.181964295372        0.023672778043689006     0.008625091506240263     0.7243454615211454
23.41642524040692         0.008734171302963726     0.7345207293646187       2388.1951167619686       0.023568097549780807     0.008734171302963724     0.7345207293646187
23.594883939950897        0.008843728519248516     0.7447425492343579       2388.207828461183        0.023455368522326502     0.008843728519248516     0.7447425492343579
23.773334590961323        0.008953763155094637     0.7550109211303637       2388.2200993930164       0.023334590961326084     0.008953763155094637     0.7550109211303636
23.951777193438208        0.009064275210502086     0.7653258450526356       2388.2319295574684       0.023205764866779555     0.009064275210502088     0.7653258450526356
24.130211747381544        0.009175264685470865     0.7756873210011739       2388.2433189545395       0.023068890238686916     0.009175264685470865     0.7756873210011739
24.308638252791333        0.009286731580000974     0.7860953489759784       2388.254267584229        0.02292396707704817      0.009286731580000974     0.7860953489759784
20.20286197585247         0.006800224939735058     0.5599006561560228       2388.072358130813        0.024290547281043153     0.006800224939735058     0.5599006561560228
20.381453239955075        0.006921686661696379     0.5690750233212073       2388.0663102110757       0.02431038281221478      0.006921686661696377     0.5690750233212073
20.560038208635866        0.007039099531214642     0.5783142992987558       2388.062091714797        0.024323922921576327     0.007039099531214642     0.5783142992987558
20.738616881894842        0.007152463548289851     0.5876184840886677       2388.0597026419755       0.024331167609127787     0.007152463548289851     0.5876184840886677
20.917189259732016        0.007261778712922004     0.5969875776909433       2388.059142992612        0.02433211687486916      0.007261778712922005     0.5969875776909433
21.095755342147374        0.007367045025111103     0.6064215801055826       2388.060412766706        0.024326770718800444     0.007367045025111103     0.6064215801055826
21.274315129140923        0.0074682624848571464    0.6159204913325855       2388.0635119642584       0.024315129140921637     0.0074682624848571464    0.6159204913325855
24.487061155850615        0.009398681572425885     0.79654502683371         2388.265559757688        0.022775441564902372     0.009398681572425885     0.79654502683371
24.665476460475503        0.009511013552117666     0.8070308567789077       2388.2783387936547       0.022619317618362056     0.009511013552117666     0.8070308567789077
24.843884166665994        0.009623727519076317     0.8175528388115718       2388.2926046921284       0.022455595237427232     0.009623727519076317     0.8175528388115718
25.022284274422095        0.009736823473301836     0.8281109729317021       2388.3083574531097       0.022284274422097895     0.009736823473301836     0.8281109729317021
25.200676783743802        0.009850301414794226     0.8387052591392987       2388.3255970765986       0.022105355172374046     0.009850301414794224     0.8387052591392986
25.37906169463111         0.00996416134355348      0.8493356974343614       2388.3443235625946       0.02191883748825568      0.00996416134355348      0.8493356974343614
25.55743900708402         0.010078403259579607     0.8600022878168905       2388.3645369110977       0.0217247213697428       0.010078403259579607     0.8600022878168906
25.735808721102543        0.010193027162872603     0.8707050302868858       2388.386237122109        0.02152300681683541      0.010193027162872603     0.8707050302868858
25.91417540417517         0.010307956169058698     0.8814389254056384       2388.4221934791626       0.021318261318031387     0.010307956169058698     0.8814389254056384
26.09253513081171         0.010423180164977758     0.8921985757380972       2388.4580169011065       0.021106559383141602     0.010423180164977758     0.8921985757380975
26.270887901012163        0.01053869915062979      0.9029839812842628       2388.4937073879396       0.020887901012166057     0.010538699150629792     0.9029839812842628
26.449233714776533        0.010654513126014791     0.9137951420441344       2388.5292649396624       0.02066228620510474      0.010654513126014791     0.9137951420441344
26.627572572104814        0.01077062209113276      0.9246320580177125       2388.564689556275        0.020429714961957664     0.01077062209113276      0.9246320580177125
26.80590447299701         0.010887026045983699     0.9354947292049968       2388.5999812377772       0.02019018728272482      0.010887026045983699     0.9354947292049968
26.98422941745312         0.011003724990567607     0.9463831556059876       2388.6351399841697       0.019943703167406217     0.011003724990567605     0.9463831556059876
27.162547405473145        0.011120718924884481     0.9572973372206848       2388.6701657954513       0.019690262616001847     0.011120718924884481     0.9572973372206848
27.340861790556822        0.011237450298974895     0.9682316334593859       2388.716849806235        0.019433219128250367     0.011237450298974895     0.9682316334593859
27.51917017756243         0.011354375719735726     0.979181529992325        2388.7715966848896       0.019170177562428878     0.011354375719735726     0.979181529992325
27.697472566489967        0.011471495187166968     0.990147026819502        2388.834406431414        0.01890113791853738      0.01147149518716697      0.990147026819502
27.875768957339435        0.011588808701268627     1.0011281239409167       2388.905279045809        0.018626100196575873     0.011588808701268627     1.0011281239409167
28.05405935011083         0.011706316262040701     1.012124821356569        2388.984214528074        0.018345064396544354     0.011706316262040701     1.012124821356569
28.232343744804158        0.011824017869483188     1.0231371190664593       2389.0712128782097       0.01805803051844283      0.011824017869483188     1.0231371190664593
28.410622141419413        0.011941913523596092     1.0341650170705872       2389.1662740962156       0.017764998562271296     0.011941913523596092     1.0341650170705872
28.588894539956602        0.012060003224379409     1.0452085153689532       2389.2693981820917       0.017465968528029754     0.012060003224379409     1.0452085153689532
28.767160637460293        0.01217732265848356      1.056260362408654        2389.3568013884665       0.017160637460292248     0.01217732265848356      1.056260362408654
28.945421489922932        0.012294891185553903     1.0673177012610195       2389.4909892696064       0.016850061351503645     0.012294891185553903     1.0673177012610195
29.123677097344522        0.01241270880559044      1.0783805319260502       2389.6719618255115       0.016534240201663948     0.012412708805590438     1.0783805319260502
29.301927459725054        0.012530775518593168     1.0894488544037457       2389.899719056182        0.01621317401077316      0.012530775518593168     1.0894488544037457
29.48017257706454         0.01264909132456209      1.1005226686941063       2390.174260961618        0.015886862778831272     0.012649091324562092     1.100522668694106
29.658412449362977        0.012767656223497206     1.1116019747971315       2390.4955875418195       0.015555306505838291     0.012767656223497206     1.1116019747971315
29.83664707662036         0.012886470215398514     1.1226867727128216       2390.863698796786        0.015218505191794213     0.012886470215398514     1.1226867727128216
30.014876458836692        0.013005533300266013     1.133777062441177        2391.278594726518        0.014876458836699039     0.013005533300266013     1.133777062441177
