% Model:              cs1.33.mph
% Version:            COMSOL 6.1.0.252
% Date:               Sep 6 2024, 15:39
% Dimension:          3
% Nodes:              169
% Expressions:        4
% Description:        线
% x                       y                        z                        磁标势                      u                        v                        w
7.185303383905605         0.0025862949227549894    0.2706988183424887       4775.550702735409        0.04244624104846356      0.0025862949227549894    0.2706988183424887
7.364476076032829         0.00261091479975617      0.2841919629800394       4775.558164231448        0.04304750460425782      0.0026109147997561703    0.2841919629800394
7.543616646146819         0.0026367947247308873    0.2979741983314414       4775.56606681937         0.04361664614681813      0.0026367947247308873    0.2979741983314414
7.722725094247574         0.0026639346976791403    0.3120455243966947       4775.574410499172        0.044153665676144496     0.0026639346976791403    0.3120455243966947
7.901801420335095         0.0026923347186009294    0.32640594117579924      4775.583195270855        0.04465856319223694      0.0026923347186009294    0.32640594117579924
8.080845624409381         0.002721994787496255     0.34105544866875515      4775.59242113442         0.04513133869509543      0.002721994787496255     0.3410554486687551
8.259857706470436         0.002752914904365116     0.3559940468755623       4775.602088089865        0.04557199218471998      0.002752914904365116     0.3559940468755623
8.438837666518257         0.002785095069207514     0.37122173579622075      4775.612196137193        0.0459805236611106       0.002785095069207514     0.37122173579622075
8.617785504552842         0.0028185352820234476    0.3867385154307305       4775.622745276401        0.04635693312426727      0.0028185352820234476    0.3867385154307305
5.750860951011511         0.002431935912728005     0.17372846079802415      4775.46549718669         0.03657523672579778      0.002431935912728005     0.17372846079802415
5.930273046496212         0.0024473463600072124    0.18477299137872882      4775.479966783317        0.0374159036390702       0.002447346360007213     0.18477299137872882
6.109654630160073         0.0024638666441361818    0.19612516884867734      4775.493345264791        0.03822605873150286      0.0024638666441361818    0.19612516884867734
6.289005702003095         0.0024814967651149125    0.20778499320786967      4775.5056326311105       0.039005702003095735     0.0024814967651149125    0.2077849932078697
6.468326262025276         0.0025002367229434047    0.21975246445630583      4775.516828882278        0.039754833453848844     0.0025002367229434047    0.21975246445630583
6.647616310226619         0.0025200865176216586    0.2320275825939858       4775.52693401829         0.04047345308376218      0.0025200865176216586    0.23202758259398581
6.826875846607121         0.002541046149149674     0.24461034762090964      4775.535948039151        0.04116156089283574      0.002541046149149674     0.24461034762090964
7.006104871166784         0.002563115617527451     0.25750075953707724      4775.543870944856        0.04181915688106955      0.002563115617527451     0.25750075953707724
4.314638592601756         0.0023379409913259546    0.09708227506759226      4775.259173769896        0.028924306887470615     0.0023379409913259546    0.09708227506759226
4.494262132820245         0.0023468492617193274    0.10551832917790065      4775.291200229474        0.029976418534532392     0.0023468492617193274    0.10551832917790065
4.673858317205231         0.0023565692734789524    0.11428144588992208      4775.321444965486        0.03100117434808821      0.0023565692734789524    0.11428144588992208
4.853427145756707         0.0023671010266048307    0.12337162520365652      4775.349907977933        0.031998574328138046     0.0023671010266048302    0.12337162520365652
5.032968618474681         0.0023784445210969602    0.132788867119104        4775.376589266815        0.03296861847468193      0.0023784445210969602    0.132788867119104
5.2124827353591465        0.0023905997569553432    0.1425331716362645       4775.401488832132        0.03391130678771984      0.002390599756955343     0.1425331716362645
5.391969496410108         0.0024035667341799774    0.15260453875513802      4775.424606673883        0.03482663926725179      0.0024035667341799774    0.15260453875513802
5.571428901627562         0.002417345452770865     0.16300296847572457      4775.445942792069        0.035714615913277764     0.002417345452770865     0.16300296847572457
2.876882189071903         0.0023295911274061856    0.04194062932575103      4775.021833811991        0.01973933192904594      0.0023295911274061856    0.04194062932575103
3.056681539340853         0.0023293153009675324    0.047621785942948885     4775.0547266166695       0.02096725362656767      0.0023293153009675324    0.04762178594294888
3.236458089659027         0.0023294164915084858    0.0536490994460131       4775.086697904222        0.022172375373312642     0.0023294164915084858    0.0536490994460131
3.416211840026423         0.0023298946990290463    0.06002256983494369      4775.117747674649        0.023354697169280864     0.0023298946990290463    0.06002256983494369
3.595942790443043         0.0023307499235292136    0.06674219710974066      4775.14787592795         0.024514219014472323     0.0023307499235292136    0.06674219710974066
3.775650940908886         0.0023319821650089885    0.073807981270404        4775.177082664125        0.02565094090888703      0.0023319821650089885    0.073807981270404
3.955336291423953         0.00233359142346837      0.0812199223169337       4775.205367883174        0.02676486285252498      0.00233359142346837      0.0812199223169337
4.134998841988242         0.0023355776989073588    0.08897802024932978      4775.232731585098        0.027855984845386175     0.0023355776989073588    0.0889780202493298
1.4379591776192981        0.002318440190972304     0.009513380112624729     4774.235351066498        0.009387749047869046     0.002318440190972304     0.009513380112624729
1.6178702825452598        0.0023358717758236026    0.01230325812837794      4774.368235592523        0.010727425402402341     0.0023358717758236026    0.012303258128377941
1.7977683221871112        0.002348721155590025     0.01545414418295617      4774.491241780595        0.012054036472825297     0.002348721155590025     0.015454144182956174
1.9776532965448523        0.002356988330271573     0.01896603827635943      4774.604369630712        0.013367582259137917     0.002356988330271573     0.01896603827635943
2.1575252056184833        0.002360673299868246     0.022838940408587707     4774.707619142876        0.014668062761340198     0.002360673299868246     0.022838940408587707
2.3373840494080036        0.002359776064380043     0.027072850579641004     4774.800990317085        0.01595547797943214      0.0023597760643800435    0.027072850579641004
2.5172298279134138        0.0023542966238069662    0.031667768789519324     4774.8844831533415       0.017229827913413747     0.0023542966238069662    0.031667768789519324
2.6970625411347133        0.0023442349781490133    0.036623695038222666     4774.958097651644        0.018491112563285013     0.0023442349781490133    0.036623695038222666
8.796700027446004         0.00284156456113619      0.4025186069968017       4775.634262670587        0.04670002744600412      0.00284156456113619      0.4025186069968017
8.97558579815304          0.0028764193698539364    0.41857498039242147      4775.645995406731        0.047014369581610156     0.0028764193698539364    0.4185749803924214
9.154442816673942         0.0029230997081766854    0.4349076356175896       4775.657943484829        0.04729995953108535      0.0029230997081766854    0.4349076356175896
9.333271083008714         0.002981605576104438     0.45151657267230627      4775.670106904884        0.04755679729442974      0.002981605576104438     0.45151657267230627
9.512070597157356         0.003051936973637194     0.4684017915565715       4775.682485666894        0.0477848828716433       0.003051936973637194     0.4684017915565715
9.690841359119869         0.0031340939007749534    0.48556329227038525      4775.69507977086         0.047984216262726045     0.0031340939007749534    0.4855632922703852
9.869583368896247         0.0032280763575177162    0.5030010748137475       4775.70788921678         0.048154797467677965     0.003228076357517716     0.5030010748137475
10.0482966264865          0.003333884343865482     0.5207151391866581       4775.720914004657        0.048296626486499065     0.003333884343865482     0.5207151391866581
0                         0                        0                        4771.682648364359        0                        0                        0
0.17956553094023758       6.854849387738516E-4     1.235749120187908E-4     4772.2147309722695       9.941023688089987E-4     6.854849387738516E-4     1.2357491201879086E-4
0.3591823093839536        0.0012579184732898995    5.516062817688105E-4     4772.685957931568        0.0020394522410964633    0.0012579184732898995    5.516062817688105E-4
0.5388503353311482        0.001717300603548143     0.0012840941092500586    4773.096329242255        0.0031360496168623946    0.001717300603548143     0.0012840941092500586
0.7185696087818212        0.002063631329548583     0.0023210383944625356    4773.445844904328        0.004283894496106793     0.002063631329548583     0.0023210383944625356
0.8983401297359728        0.002296910651291219     0.003662439137406241     4773.734504917789        0.005482986878829656     0.002296910651291219     0.003662439137406241
1.0781618981936025        0.0024171385687760515    0.005308296338081175     4773.962309282638        0.006733326765030986     0.0024171385687760515    0.005308296338081175
1.2580349141547111        0.00242431508200308      0.007258609996487337     4774.129257998874        0.008034914154710783     0.0024243150820030795    0.007258609996487337
11.478395872423084        0.003966975504429968     0.6742234207930806       4775.681498751163        0.04982444385165395      0.003966975504429968     0.6742234207930806
11.65696940244689         0.00401463459407464      0.6948936954073298       4775.698988413468        0.04982654530403156      0.00401463459407464      0.6948936954073299
11.835494071693844        0.0040626178883011255    0.7158707194023671       4775.715732264235        0.04977978597955759      0.0040626178883011255    0.7158707194023672
12.013969880163947        0.004110925387109424     0.7371544927781929       4775.731730303466        0.049684165878232066     0.004110925387109423     0.737154492778193
12.192396827857197        0.0041595570904995344    0.7587450155348068       4775.74698253116         0.04953968500005496      0.0041595570904995344    0.7587450155348068
12.370774914773596        0.0042085129984714585    0.7806422876722089       4775.761488947318        0.04934634334502631      0.0042085129984714585    0.7806422876722088
12.549104140913148        0.004257793111025194     0.8028463091903989       4775.775249551938        0.04910414091314608      0.004257793111025194     0.8028463091903989
12.727384506275842        0.004307397428160744     0.8253570800893772       4775.788264345023        0.04881307770441429      0.004307397428160743     0.8253570800893774
12.905616010861689        0.004357325949878105     0.8481746003691439       4775.80053332657         0.04847315371883093      0.004357325949878105     0.8481746003691439
13.083802997379541        0.004412195885373944     0.8712893611316755       4775.790108599909        0.04808871166525643      0.004412195885373944     0.8712893611316755
13.261938744696389        0.004467273930094845     0.894686606846586        4775.78095528124         0.04765303041067563      0.004467273930094845     0.894686606846586
13.44002325281223         0.004522560084040807     0.9183663375138749       4775.773073370565        0.04716610995508853      0.0045225600840408066    0.9183663375138749
13.618056521727066        0.004578054347211832     0.9423285531335425       4775.766462867881        0.046627950298495126     0.004578054347211832     0.9423285531335425
13.796038551440894        0.0046337567196079186    0.9665732537055886       4775.761123773191        0.04603855144089542      0.0046337567196079186    0.9665732537055886
13.973969341953717        0.004689667201229068     0.9911004392300132       4775.757056086493        0.04539791338228942      0.004689667201229067     0.9911004392300135
14.151848893265532        0.004745785792075279     1.0159101097068166       4775.754259807789        0.04470603612267711      0.004745785792075279     1.0159101097068166
14.329677205376344        0.004802112492146552     1.0410022651359987       4775.752734937078        0.04396291966205851      0.004802112492146552     1.0410022651359987
10.227195421351018        0.0034652697266459847    0.5387646969435788       4775.7013348108685       0.048623992779590806     0.0034652697266459847    0.5387646969435788
10.406055247894841        0.0035817268272236463    0.5571396768273227       4775.685941984824        0.04891239075198331      0.0035817268272236463    0.5571396768273227
10.584876106117962        0.0036832556455984678    0.5758400788378903       4775.674735526522        0.04916182040367655      0.0036832556455984678    0.5758400788378903
10.763657996020385        0.003769856181770449     0.5948659029752813       4775.667715435964        0.04937228173467054      0.003769856181770449     0.5948659029752813
10.942400917602109        0.0038415284357395897    0.6142171492394959       4775.664881713149        0.049543774744965276     0.0038415284357395897    0.6142171492394959
11.121104870863133        0.0038982724075058896    0.633893817630534        4775.666234358077        0.049676299434560756     0.0038982724075058896    0.633893817630534
11.29976985580346         0.0039400880970693495    0.6538959081483956       4775.671773370748        0.04976985580345698      0.0039400880970693495    0.6538959081483956
17.16830031865352         0.005873584956957193     1.4767504777477525       4775.837443115341        0.02544317579637768      0.005873584956957193     1.4767504777477525
17.34530213701575         0.005946308862954474     1.5059896120114253       4775.843834624978        0.023873565587178396     0.005946308862954474     1.5059896120114253
17.522257040333923        0.006020046682884642     1.5354358377655253       4775.849768082594        0.02225704033392311      0.006020046682884642     1.5354358377655253
17.699165028608043        0.006094798416747699     1.5650891550100523       4775.855243488191        0.02059360003661182      0.006094798416747699     1.5650891550100523
17.8760261018381          0.006170564064543643     1.5949495637450064       4775.860260841769        0.018883244695244533     0.006170564064543643     1.5949495637450064
18.05284026002411         0.006247343626272475     1.6250170639703876       4775.864820143326        0.017125974309821244     0.006247343626272475     1.6250170639703876
18.22960750316605         0.006325137101934193     1.655291655686196        4775.868921392865        0.015321788880341951     0.0063251371019341935    1.655291655686196
18.406327831263944        0.0064039444915287985    1.6857733388924314       4775.872564590382        0.01347068840680666      0.0064039444915287985    1.6857733388924314
18.583001244317778        0.006483765795056292     1.716462113589094        4775.875749735881        0.011572672889215367     0.006483765795056292     1.716462113589094
14.507467240054225        0.004864419100199179     1.0663594262882758       4775.765058556977        0.043181525768510164     0.004864419100199178     1.0663594262882758
14.685205974958711        0.004927385957068676     1.0919733372348124       4775.777329964905        0.04234883210156874      0.004927385957068676     1.0919733372348124
14.862893410089804        0.004991013062755046     1.117843997975609        4775.789549160863        0.04146483866123424      0.004991013062755046     1.117843997975609
15.040529545447505        0.005055300417258288     1.143971408510665        4775.801716144851        0.04052954544750665      0.005055300417258288     1.143971408510665
15.218114381031812        0.005120248020578402     1.1703555688399807       4775.813830916867        0.03954295246038598      0.005120248020578402     1.1703555688399807
15.39564791684273         0.005185855872715388     1.1969964789635559       4775.825893476912        0.03850505969987224      0.005185855872715388     1.1969964789635559
15.573130152880253        0.005252123973669246     1.223894138881391        4775.837903824986        0.037415867165965414     0.005252123973669247     1.223894138881391
15.750561089144382        0.005319052323439977     1.2510485485934857       4775.849861961089        0.036275374858665506     0.005319052323439977     1.2510485485934857
15.92795306238607         0.005384672858060162     1.2784519445093716       4775.844704579628        0.035095919528924255     0.005384672858060163     1.2784519445093716
16.105295158612602        0.005451349405414481     1.3060865819190854       4775.840577205523        0.03386658718402737      0.005451349405414481     1.3060865819190854
16.28258737782398         0.005519081965502933     1.3339524608226272       4775.837479838772        0.03258737782397485      0.005519081965502933     1.3339524608226272
16.4598297200202          0.005587870538325519     1.3620495812199966       4775.835412479377        0.03125829144876669      0.005587870538325519     1.3620495812199966
16.637022185201264        0.005657715123882238     1.3903779431111938       4775.834375127335        0.029879328058402894     0.0056577151238822385    1.3903779431111938
16.81416477336717         0.005728615722173088     1.4189375464962188       4775.834367782649        0.02845048765288346      0.005728615722173089     1.4189375464962188
16.991257484517924        0.005800572333198074     1.4477283913750718       4775.835390445318        0.02697177023220839      0.005800572333198074     1.4477283913750718
18.75962974606614         0.00655213412078161      1.7473295876453692       4775.879896054649        0.009629746066146272     0.006552134120781609     1.7473295876453694
18.936218068712265        0.006631541638612353     1.7783850781319694       4775.888041249538        0.0076466401408433       0.006631541638612352     1.7783850781319694
19.11276621225616         0.006721988348548522     1.8096285850488945       4775.9001853205455       0.005623355113306453     0.006721988348548522     1.8096285850488945
19.28927417669782         0.006823474250590119     1.8410601083961446       4775.916328267673        0.0035598909835357277    0.006823474250590119     1.8410601083961446
19.465741962037242        0.006935999344737143     1.8726796481737196       4775.936470090919        0.001456247751531126     0.006935999344737143     1.8726796481737196
19.642169568274436        0.007059563630989594     1.9044872043816194       4775.9606107902855       -6.875745827073515E-4    0.007059563630989594     1.9044872043816194
19.81855699540939         0.0071941671093474725    1.9364827770198445       4775.988750365771        -0.002871576019179706    0.007194167109347472     1.9364827770198445
19.994904243442114        0.007339809779810775     1.9686663660883943       4776.020888817376        -0.005095756557885937    0.007339809779810775     1.9686663660883943
21.405600534440776        0.008284104332239297     2.234703664536248        4775.948676064487        -0.022970894130654552    0.008284104332239297     2.234703664536248
21.581685873574255        0.008365893165285566     2.268994182165159        4775.969251017513        -0.025456983568603632    0.008365893165285566     2.268994182165159
21.75771463578374         0.008447723999681163     2.3034805333130177       4775.987592881733        -0.02799964993054835     0.008447723999681163     2.3034805333130177
21.933686821069227        0.008529596835426085     2.338162717979822        4776.003701657147        -0.030598893216488704    0.008529596835426085     2.338162717979822
22.10960242943072         0.008611511672520335     2.373040736165573        4776.017577343756        -0.03325471342642469     0.008611511672520335     2.373040736165573
22.285461460868216        0.008693468510963913     2.4081145878702697       4776.029219941559        -0.03596711056035632     0.008693468510963913     2.4081145878702697
22.461263915381718        0.008775467350756816     2.4433842730939133       4776.038629450557        -0.038736084618283574    0.008775467350756816     2.4433842730939133
22.637009792971224        0.008857508191899047     2.4788497918365024       4776.045805870749        -0.04156163560020647     0.008857508191899047     2.4788497918365024
22.812699093636734        0.008939591034390607     2.5145111440980386       4776.050749202135        -0.044443763506125       0.008939591034390607     2.5145111440980386
22.98834137482259         0.009024235719547118     2.5503562856013824       4776.068810660273        -0.047372910891697755    0.009024235719547117     2.5503562856013824
23.163931112322846        0.009109118097346668     2.5863615330740655       4776.085454435195        -0.05035460196287119     0.009109118097346668     2.5863615330740655
23.339468306137498        0.009194238167789262     2.622526886516087        4776.100680526903        -0.05338883671964534     0.009194238167789262     2.622526886516087
23.51495295626655         0.009279595930874901     2.658852345927447        4776.1144889353955       -0.05647561516202017     0.009279595930874901     2.658852345927447
23.690385062710003        0.00936519138660358      2.6953379113081453       4776.126879660673        -0.0596149372899957      0.00936519138660358      2.6953379113081457
23.865764625467857        0.0094510245349753       2.7319835826581835       4776.137852702734        -0.06280680310357194     0.009451024534975302     2.7319835826581835
24.04109164454011         0.009537095375990064     2.768789359977559        4776.147408061581        -0.06605121260274885     0.009537095375990064     2.768789359977559
24.21636611992676         0.00962340390964787      2.8057552432662733       4776.155545737212        -0.06934816578752648     0.00962340390964787      2.8057552432662733
20.171427566856625        0.0075153860060551796    2.001126767491833        4775.999658467031        -0.007143861714802676    0.0075153860060551796    2.0011267674918325
20.34789766540266         0.007674522401673628     2.033814100581712        4775.981914904181        -0.009245191740199226    0.007674522401673628     2.033814100581712
20.52431453908021         0.007817218966666123     2.066728365358032        4775.967658128828        -0.011399746634075586    0.007817218966666123     2.0667283653580317
20.700678187889284        0.007943475701032666     2.0998695618207934       4775.956888140969        -0.013607526396431757    0.007943475701032666     2.0998695618207934
20.876988611829876        0.008053292604773254     2.133237689969995        4775.949604940605        -0.01586853102726774     0.008053292604773254     2.1332376899699956
21.05324581090199         0.008146669677887889     2.1668327498056383       4775.9458085277365       -0.018182760526583533    0.008146669677887889     2.166832749805639
21.229449785105622        0.00822360692037657      2.2006547413277224       4775.945498902364        -0.020550214894379137    0.00822360692037657      2.2006547413277224
24.391605675389375        0.009710584937094549     2.8428655472098168       4776.163639009742        -0.0726800388963393      0.009710584937094553     2.8428655472098168
24.566799164150463        0.00979800201320005      2.8800991256587922       4776.173520017191        -0.0760579787066785      0.00979800201320005      2.8800991256587922
24.741946586210023        0.009885655137964364     2.9174559786131975       4776.18518875956         -0.07948198521854412     0.009885655137964366     2.917455978613198
24.91704794156806         0.009973544311387497     2.9549361060730357       4776.198645236849        -0.08295205843193612     0.009973544311387497     2.9549361060730357
25.09210323022457         0.010061669533469443     2.9925395080383046       4776.213889449058        -0.08646819834685453     0.010061669533469444     2.992539508038305
25.267112452179557        0.01015003080421021      3.0302661845090055       4776.230921396187        -0.09003040496329931     0.01015003080421021      3.0302661845090055
25.442075607433008        0.010238628123609792     3.068116135485137        4776.249741078236        -0.09363867828127052     0.010238628123609792     3.0681161354851376
25.61699269598494         0.010327461491668192     3.106089360966701        4776.270348495205        -0.0972930183007681      0.010327461491668192     3.106089360966701
25.79188203478103         0.010416681022979199     3.144170246537108        4776.318101564223        -0.10097510807611369     0.010416681022979199     3.144170246537108
25.966732888189174        0.010506159515140799     3.18233786562364         4776.362755893251        -0.10469568323939453     0.010506159515140799     3.18233786562364
26.141545256209387        0.01059589696815299      3.2205922182262947       4776.404311482289        -0.10845474379061061     0.01059589696815299      3.2205922182262947
26.316319138841664        0.010685893382015773     3.258933304345074        4776.442768331337        -0.11225228972976196     0.010685893382015773     3.258933304345074
26.491054536086004        0.01077614875672915      3.2973611239799765       4776.478126440395        -0.11608832105684856     0.01077614875672915      3.297361123979977
26.665751447942412        0.010866663092293118     3.3358756771310034       4776.510385809461        -0.11996283777187045     0.010866663092293118     3.3358756771310034
26.840409874410888        0.010957436388707678     3.3744769637981546       4776.539546438537        -0.12387583987482755     0.010957436388707678     3.3744769637981546
27.015029815491424        0.011048468645972831     3.4131649839814293       4776.5656083276235       -0.12782732736571994     0.011048468645972831     3.4131649839814293
27.189625923157713        0.011138044120098339     3.4519214757837893       4776.613189679605        -0.1318026482708638      0.01113804412009834      3.4519214757837893
27.364192402046736        0.011227817722615184     3.49072937069075         4776.666905221731        -0.13580759795326822     0.011227817722615182     3.49072937069075
27.538729252158497        0.01131778945352336      3.5295886687023117       4776.726754953999        -0.13984217641293303     0.01131778945352336      3.5295886687023117
27.713236473493           0.011407959312822867     3.5684993698184733       4776.792738876412        -0.14390638364985836     0.011407959312822867     3.5684993698184733
27.887714066050243        0.011498327300513709     3.6074614740392357       4776.864856988967        -0.14800021966404417     0.011498327300513709     3.6074614740392357
28.062162029830226        0.011588893416595884     3.646474981364598        4776.943109291667        -0.15212368445549043     0.011588893416595882     3.6464749813645985
28.236580364832946        0.011679657661069388     3.685539891794561        4777.0274957845095       -0.15627677802419715     0.01167965766106939      3.685539891794561
28.410969071058407        0.01177062003393423      3.7246562053291252       4777.118016467495        -0.16045950037016438     0.01177062003393423      3.7246562053291252
28.5853309550702          0.011857621981708295     3.7637987775271093       4777.199155882195        -0.1646690449297964      0.011857621981708295     3.7637987775271093
28.759671667212864        0.011946183099380041     3.802957047362208        4777.320162169413        -0.1688997613585637      0.011946183099380041     3.802957047362208
28.93399120748639         0.012036303386949467     3.842131014834423        4777.481035329148        -0.17315164965646623     0.012036303386949467     3.842131014834423
29.10828957589078         0.012127982844416572     3.881320679943753        4777.681775361401        -0.17742470982350403     0.012127982844416572     3.881320679943753
29.282566772426033        0.012221221471781356     3.920526042690198        4777.922382266172        -0.1817189418596771      0.012221221471781356     3.920526042690198
29.456822797092155        0.012316019269043821     3.959747103073759        4778.20285604346         -0.18603434576498545     0.01231601926904382      3.959747103073759
29.631057649889136        0.012412376236203964     3.9989838610944357       4778.523196693266        -0.19037092153942906     0.012412376236203962     3.9989838610944357
29.805271330816986        0.012510292373261787     4.0382363167522275       4778.8834042155895       -0.1947286691830079      0.012510292373261787     4.0382363167522275
