% Model:              cs1.33.mph
% Version:            COMSOL 6.1.0.252
% Date:               Sep 6 2024, 15:39
% Dimension:          3
% Nodes:              169
% Expressions:        4
% Description:        线
% x                       y                        z                        磁标势                      u                        v                        w
7.19725820657354          0.009147882560324424     1.5095526591654351       8755.329441266878        0.054401063716398405     0.009147882560324424     1.5095526591654351
7.366513098177679         0.00907677174857258      1.5823821784287084       8755.336981670358        0.04508452674910825      0.00907677174857258      1.5823821784287084
7.535077379809127         0.009004422079736668     1.656559411007295        8755.345241091656        0.03507737980912732      0.00900442207973667      1.6565594110072952
7.702951051467884         0.00893083355381669      1.7320843569011952       8755.354219530773        0.02437962289645563      0.00893083355381669      1.7320843569011952
7.87013411315395          0.008856006170812643     1.8089570161104087       8755.363916987706        0.012991256011093173     0.008856006170812643     1.8089570161104087
8.036626564867326         0.00877993993072453      1.8871773886349357       8755.374333462458        9.122791530399471E-4     0.00877993993072453      1.8871773886349357
8.20242840660801          0.008702634833552346     1.966745474474776        8755.385468955028        -0.011857307677704047    0.008702634833552346     1.966745474474776
8.367539638376007         0.008624090879296097     2.0476612736299296       8755.397323465415        -0.025317504481138804    0.008624090879296097     2.0476612736299296
8.53196026017131          0.00854430806795578      2.1299247861003967       8755.40989699362         -0.03946831125726433     0.00854430806795578      2.1299247861003967
5.819905140356758         0.009948847299369802     0.9806121656210148       8755.250039736466        0.10561942607104434      0.009948847299369802     0.9806121656210148
5.99436151474769          0.00986624091009176      1.0414173042524597       8755.266085114723        0.10150437189054796      0.009866240910091762     1.0414173042524597
6.168164391677527         0.009778630462784398     1.1037402780443641       8755.280381868135        0.09673582024895606      0.009778630462784398     1.103740278044364
6.341313771146268         0.00968601595744771      1.1675810869967276       8755.292929996704        0.09131377114626862      0.009686015957447709     1.1675810869967276
6.513809653153913         0.0095883973940817       1.2329397311095505       8755.303729500427        0.08523822458248564      0.0095883973940817       1.2329397311095505
6.6856520377004625        0.009485774772686367     1.2998162103828326       8755.312780379307        0.07850918055760714      0.009485774772686367     1.2998162103828326
6.856840924785917         0.00937814809326171      1.3682105248165741       8755.320082633341        0.0711266390716331       0.00937814809326171      1.368210524816574
7.027376314410277         0.009265517355807728     1.4381226744107751       8755.325636262532        0.06309060012456352      0.00926551735580773      1.438122674410775
4.403455935031055         0.010778452229741392     0.5544902793833913       8755.002656272989        0.11774164931677066      0.010778452229741392     0.5544902793833913
4.5825505277228           0.010699693128869666     0.6018127652722655       8755.041350364865        0.11826481343708643      0.010699693128869668     0.6018127652722655
4.761062708407107         0.010613807880733735     0.6508331797013762       8755.077824125616        0.11820556554996461      0.010613807880733735     0.6508331797013763
4.938992477083977         0.010520796485333597     0.7015515226707241       8755.112077555239        0.11756390565540524      0.010520796485333599     0.7015515226707241
5.116339833753408         0.010420658942669253     0.7539677941803086       8755.144110653737        0.11633983375340823      0.010420658942669253     0.7539677941803086
5.293104778415401         0.0103133952527407       0.8080819942301299       8755.173923421107        0.11453334984397365      0.0103133952527407       0.8080819942301299
5.469287311069958         0.01019900541554794      0.863894122820188        8755.201515857354        0.11214445392710147      0.01019900541554794      0.8638941228201881
5.644887431717076         0.010077489431090974     0.9214041799504831       8755.226887962473        0.10917314600279171      0.010077489431090974     0.9214041799504831
2.9537383043715946        0.011790729015648269     0.24240451695595228      8754.76086168039         0.0965954472287373       0.011790729015648269     0.24240451695595228
3.136611045134828         0.01170990371329035      0.27483049578808044      8754.79328209978         0.1008967594205424       0.011709903713290351     0.27483049578808044
3.31901006106069          0.011616018612109452     0.3091378293262949       8754.825075063363        0.10472434677497579      0.01161601861210945      0.3091378293262949
3.5009353521491797        0.011509073712105565     0.34532651757059546      8754.856240571144        0.1080782092920375       0.011509073712105565     0.34532651757059546
3.682386918400298         0.011389069013278698     0.38339656052098225      8754.88677862312         0.11095834697172752      0.011389069013278698     0.38339656052098225
3.8633647598140453        0.011256004515628847     0.4233479581774552       8754.916689219293        0.11336475981404585      0.011256004515628847     0.4233479581774552
4.0438688763904205        0.011109880219156012     0.4651807105400144       8754.945972359663        0.11529744781899248      0.011109880219156012     0.4651807105400144
4.223899268129424         0.010950696123860194     0.5088948176086597       8754.974628044227        0.11675641098656742      0.010950696123860194     0.5088948176086597
1.4791107417518026        0.01253848121333217      0.05582943404044604      8753.913018598216        0.05053931318037362      0.01253848121333217      0.05582943404044604
1.6644841510179778        0.012574579749160071     0.07203575100192001      8754.055450515087        0.05734129387512035      0.012574579749160071     0.07203575100192
1.8495589991588097        0.012573658981977005     0.09027508750709808      8754.187467708645        0.06384471344452385      0.012573658981977005     0.09027508750709808
2.034335286174298         0.01253571891178297      0.11054744355598023      8754.309070178888        0.07004957188858413      0.01253571891178297      0.11054744355598022
2.218813012064444         0.012460759538577967     0.13285281914856645      8754.420257925818        0.0759558692073012       0.012460759538577967     0.13285281914856645
2.402992176829246         0.012348780862361994     0.15719121428485677      8754.521030949432        0.08156360540067506      0.012348780862361994     0.15719121428485677
2.5868727804687057        0.012199782883135056     0.1835626289648512       8754.611389249732        0.08687278046870568      0.012199782883135056     0.1835626289648512
2.770454822982822         0.012013765600897145     0.2119670631885497       8754.691332826718        0.0918833944113931       0.012013765600897145     0.2119670631885497
8.695695068231341         0.008433932702320467     2.2133792886124253       8755.426508158886        -0.054304931768661226    0.008433932702320467     2.2133792886124257
8.85873240223822          0.008373278527924721     2.298055548750346        8755.442093169808        -0.06983902633321079     0.008373278527924721     2.298055548750346
9.021072262191947         0.008362345544768545     2.383953566514157        8755.45665202639         -0.08607059495091303     0.008362345544768545     2.383953566514157
9.182714648092519         0.008401133752851935     2.471073341903859        8755.47018472863         -0.10299963762176795     0.008401133752851935     2.471073341903859
9.34365955993994          0.008489643152174896     2.5594148749194527       8755.482691276527        -0.12062615434577555     0.008489643152174894     2.5594148749194527
9.503906997734207         0.00862787374273742      2.6489781655609375       8755.494171670085        -0.1389501451229358      0.008627873742737421     2.6489781655609375
9.663456961475323         0.008815825524539517     2.7397632138283132       8755.5046259093          -0.15797160995324877     0.008815825524539515     2.7397632138283132
9.822309451163285         0.009053498497581181     2.83177001972158         8755.514053994171        -0.17769054883671437     0.009053498497581181     2.83177001972158
0                         0                        0                        8751.028653710926        0                        0                        0
0.1841409310269876        0.003803207934783475     8.114236172809287E-4     8751.644025018108        0.005569502455558965     0.003803207934783475     8.114236172809291E-4
0.36849555110882876       0.006967587931533535     0.003384920273926095     8752.186588983499        0.01135269396597157      0.006967587931533535     0.003384920273926095
0.5530638602455237        0.00949313999025018      0.007720489969935495     8752.656345607098        0.017349574531237817     0.00949313999025018      0.007720489969935495
0.7378458584370722        0.011379864110933408     0.013818132705309133     8753.053294888905        0.0235601441513577       0.011379864110933408     0.013818132705309133
0.9228415456834743        0.012627760293583222     0.021677848480047005     8753.377436828921        0.02998440282633122      0.012627760293583222     0.021677848480047005
1.10805092198473          0.013236828538199621     0.03129963729414911      8753.628771427144        0.036622350556158374     0.013236828538199621     0.03129963729414911
1.2934739873408396        0.013207068844782602     0.042683499147615454     8753.807298683576        0.04347398734083918      0.013207068844782602     0.042683499147615454
11.068724833743694        0.009940128396304298     3.6213668781099706       8755.441744407222        -0.3598465948277367      0.009940128396304298     3.6213668781099706
11.220335848139277        0.009882916476963769     3.7261748001091983       8755.465465677806        -0.38680700900358045     0.009882916476963769     3.726174800109198
11.3710008271532          0.009820902207107502     3.8321552119216875       8755.488450795046        -0.4147134585610878      0.009820902207107502     3.8321552119216875
11.520719770785455        0.0097540855867355       3.9393081135474404       8755.510699758946        -0.4435659435002588      0.0097540855867355       3.9393081135474404
11.66949267903605         0.009682466615847762     4.047633504986454        8755.532212569504        -0.47336446382109343     0.009682466615847762     4.047633504986454
11.81731955190498         0.009606045294444287     4.15713138623873         8755.55298922672         -0.5041090195235918      0.009606045294444285     4.15713138623873
11.964200389392245        0.009524821622525078     4.267801757304268        8755.573029730596        -0.5357996106077537      0.009524821622525078     4.267801757304269
12.110135191497848        0.009438795600090128     4.379644618183069        8755.59233408113         -0.5684362370735793      0.009438795600090128     4.379644618183069
12.255123958221787        0.009347967227139447     4.492659968875132        8755.610902278322        -0.6020188989210685      0.009347967227139447     4.492659968875132
12.399201441066486        0.009311154334042105     4.606762684506299        8755.593994000636        -0.6365128446477991      0.009311154334042103     4.606762684506299
12.542351775048019        0.009267450641254251     4.721861386183752        8755.57852429533         -0.6719339392376946      0.009267450641254251     4.721861386183752
12.684574960166389        0.009216856148775883     4.837956073907495        8755.5644931624          -0.708282182690755       0.009216856148775885     4.8379560739074945
12.82587099642159         0.009159370856607008     4.955046747677524        8755.55190060185         -0.7455575750069805      0.009159370856607008     4.955046747677524
12.966239883813627        0.009094994764747616     5.07313340749384         8755.540746613677        -0.7837601161863709      0.009094994764747615     5.07313340749384
13.105681622342503        0.009023727873197714     5.192216053356442        8755.531031197883        -0.8228898062289262      0.009023727873197714     5.192216053356443
13.24419621200821         0.0089455701819573       5.312294685265334        8755.522754354468        -0.8629466451346464      0.0089455701819573       5.312294685265333
13.381783652810753        0.008860521691026373     5.433369303220511        8755.51591608343         -0.9039306329035316      0.008860521691026373     5.433369303220511
9.981269666996779         0.009454066279926995     2.925731534673393        8755.486789965837        -0.1973017615746491      0.009454066279926995     2.925731534673393
10.139327513398573        0.009771851477985542     3.0210467902957014       8755.464733174638        -0.21781534374428185     0.009771851477985543     3.0210467902957014
10.296482990368675        0.010006854091756829     3.1177157865885063       8755.447883620569        -0.23923129534561258     0.010006854091756827     3.1177157865885063
10.452736097907074        0.01015907412124085      3.2157385235518072       8755.436241303634        -0.2615496163786413      0.01015907412124085      3.2157385235518072
10.608086836013776        0.01022851156643761      3.315115001185604        8755.429806223832        -0.2847703068433681      0.01022851156643761      3.315115001185604
10.76253520468878         0.010215166427347102     3.4158452194898965       8755.428578381163        -0.30889336673979295     0.010215166427347103     3.415845219489897
10.916081203932086        0.010119038703969331     3.5179291784646853       8755.432557775626        -0.33391879606791586     0.010119038703969331     3.517929178464686
15.467383931637453        0.008246128566690445     7.480767372675725        8755.62328076755         -1.6754732112196913      0.008246128566690445     7.480767372675725
15.59081641719057         0.008221077025928837     7.6148506677248085       8755.633305815854        -1.730612154238002       0.008221077025928837     7.6148506677248085
15.7135137938166          0.008197134692932144     7.749507521996875        8755.642072438815        -1.7864862061833988      0.008197134692932144     7.749507521996874
15.835476061515545        0.008174301567700363     7.884737935491919        8755.649580636426        -1.8430953670558812      0.008174301567700363     7.884737935491919
15.956703220287405        0.008152577650233495     8.020541908209946        8755.655830408694        -1.9004396368554493      0.008152577650233495     8.020541908209946
16.07719527013218         0.00813196294053154      8.156919440150952        8755.660821755613        -1.9585190155821035      0.00813196294053154      8.156919440150952
16.19695221104987         0.008112457438594498     8.29387053131494         8755.664554677189        -2.0173335032358435      0.008112457438594498     8.293870531314939
16.315974043040466        0.008094061144422366     8.431395181701909        8755.667029173417        -2.0768830998166696      0.008094061144422366     8.431395181701907
16.434260766103986        0.00807677405801515      8.569493391311855        8755.668245244298        -2.137167805324581       0.00807677405801515      8.569493391311855
13.518555664647874        0.008830359689463173     5.555349516149667        8755.532465689175        -0.9457300496378427      0.008830359689463173     5.555349516149667
13.654450704429665        0.008797704701001993     5.678162646894167        8755.549639772362        -0.9884064384274758      0.008797704701001993     5.678162646894165
13.789468772156141        0.008762556725642835     5.801808695454011        8755.567438332984        -1.0319597992724308      0.008762556725642833     5.801808695454012
13.923609867827292        0.008724915763385696     5.926287661829202        8755.585861371046        -1.076390132172708       0.008724915763385696     5.926287661829202
14.05687399144312         0.008684781814230583     6.051599546019737        8755.604908886546        -1.1216974371283073      0.008684781814230581     6.051599546019738
14.189261143003629        0.008642154878177488     6.17774434802562         8755.624580879483        -1.1678817141392284      0.008642154878177488     6.17774434802562
14.320771322508815        0.008597034955226419     6.3047220678468445       8755.644877349858        -1.2149429632054716      0.008597034955226417     6.3047220678468445
14.451404529958678        0.00854942204537737      6.432532705483416        8755.665798297672        -1.2628811843270369      0.00854942204537737      6.432532705483416
14.581240438541549        0.008511220955738814     6.561141498456002        8755.653646233568        -1.311616704315594       0.008511220955738814     6.561141498456003
14.710265351874986        0.008473102553186743     6.690441874407575        8755.643447704559        -1.3611632195535865      0.008473102553186743     6.690441874407575
14.838479269958988        0.008435066837721154     6.820433833338134        8755.63520271065         -1.4115207300410149      0.008435066837721154     6.820433833338133
14.965882192793552        0.008397113809342046     6.951117375247678        8755.628911251835        -1.462689235777879       0.008397113809342046     6.951117375247678
15.09247412037868         0.008359243468049421     7.082492500136211        8755.62457332812         -1.5146687367641787      0.008359243468049421     7.082492500136209
15.218255052714374        0.008321455813843281     7.214559208003728        8755.622188939498        -1.5674592329999137      0.008321455813843281     7.214559208003728
15.343224989800634        0.008283750846723621     7.347317498850233        8755.621758085976        -1.6210607244850848      0.008283750846723621     7.347317498850233
16.551899705595524        0.008016400449870204     8.708053618566185        8755.674966183617        -2.198100294404466       0.008016400449870204     8.708053618566185
16.66888059783805         0.008000324824512656     8.847109556773159        8755.686905663335        -2.2596908307333696      0.008000324824512656     8.847109556773159
16.78520344283156         0.00802854718194251      8.986661205932778        8755.704063683454        -2.321939414311294       0.00802854718194251      8.986661205932778
16.90086824057604         0.008101067522159765     9.126708566045043        8755.72644024397         -2.3848460451382385      0.008101067522159765     9.126708566045043
17.015874991071506        0.00821788584516442      9.267251637109952        8755.754035344888        -2.4484107232142023      0.00821788584516442      9.267251637109952
17.13022369431795         0.008379002150956475     9.408290419127507        8755.786848986203        -2.512633448539187       0.008379002150956475     9.408290419127507
17.243914350315375        0.008584416439535933     9.549824912097705        8755.824881167919        -2.5775142211131907      0.008584416439535933     9.549824912097707
17.356946959063784        0.008834128710902788     9.69185511602055         8755.868131890033        -2.6430530409362145      0.008834128710902788     9.69185511602055
18.23676283453811         0.009835677825423016     10.854585255881704       8755.72177027991         -3.191808594033323       0.009835677825423016     10.854585255881704
18.343022240553513        0.0097987756538786       11.00238142082528        8755.748973337902        -3.264120616589347       0.0097987756538786       11.00238142082528
18.44855347045992         0.009759951586414165     11.150591085870586       8755.772603326694        -3.3371608152543693      0.009759951586414165     11.150591085870586
18.55335652425732         0.009719205623029714     11.299214251017624       8755.792660246289        -3.4109291900283916      0.009719205623029716     11.299214251017624
18.657431401945733        0.009676537763725247     11.44825091626639        8755.809144096682        -3.4854257409114124      0.009676537763725247     11.44825091626639
18.760778103525137        0.009631948008500762     11.597701081616888       8755.822054877877        -3.5606504679034323      0.009631948008500762     11.597701081616888
18.863396628995552        0.009585436357356258     11.747564747069116       8755.831392589875        -3.6366033710044516      0.009585436357356258     11.747564747069115
18.96528697835696         0.009537002810291738     11.897841912623074       8755.837157232672        -3.7132844502144695      0.00953700281029174      11.897841912623074
19.06644915160937         0.0094866473673072       12.04853257827876        8755.83934880627         -3.7906937055334864      0.0094866473673072       12.04853257827876
19.166955364176424        0.009454113722310408     12.199606979657919       8755.863673990229        -3.8687589215378564      0.009454113722310408     12.19960697965792
19.266851395394177        0.009420570938269686     12.35098107424488        8755.885295147335        -3.9474343188915353      0.009420570938269686     12.35098107424488
19.366137245262614        0.009386019015185033     12.502654862039641       8755.904212277586        -4.026719897594525       0.009386019015185033     12.502654862039641
19.464812913781746        0.00935045795305645      12.654628343042205       8755.920425380988        -4.106615657646823       0.00935045795305645      12.654628343042205
19.562878400951565        0.009313887751883935     12.80690151725257        8755.933934457535        -4.18712159904843        0.009313887751883935     12.80690151725257
19.66033370677208         0.009276308411667492     12.959474384670736       8755.94473950723         -4.2682377217993475      0.009276308411667492     12.959474384670736
19.757178831243284        0.009237719932407115     13.112346945296705       8755.952840530072        -4.349964025899574       0.009237719932407117     13.112346945296705
19.853413774365176        0.009198122314102811     13.265519199130475       8755.958237526062        -4.43230051134911        0.009198122314102811     13.265519199130475
17.46975093060045         0.009221346957095667     9.835279354658043        8755.827668169934        -2.7088204979709785      0.009221346957095668     9.835279354658045
17.58174719153644         0.009533701029894875     9.979251315822724        8755.793538312357        -2.7753956656064203      0.009533701029894875     9.979251315822724
17.692935741871743        0.00977119092930041      10.12377099951459        8755.765742317306        -2.8427785438425413      0.00977119092930041      10.12377099951459
17.803316581606378        0.009933816655312275     10.26883840573364        8755.744280184777        -2.9109691326793405      0.009933816655312275     10.26883840573364
17.912889710740327        0.010021578207930466     10.414453534479875       8755.729151914775        -2.9799674321168186      0.010021578207930466     10.414453534479875
18.021655129273604        0.010034475587154987     10.560616385753299       8755.720357507296        -3.0497734421549745      0.010034475587154989     10.5606163857533
18.129612837206196        0.009972508792985838     10.707326959553908       8755.71789696234         -3.1203871627938096      0.009972508792985838     10.707326959553908
19.949145465762488        0.009166859557954436     13.418982424239612       8755.961733592405        -4.51514024852323        0.009166859557954436     13.418982424239612
20.04439607059988         0.009135346685794476     13.572647611808739       8755.967534924834        -4.5984610722572645      0.009135346685794476     13.572647611808739
20.13916558887736         0.009103583697622934     13.726514761837855       8755.97564152335         -4.682262982551215       0.009103583697622934     13.726514761837855
20.23345402059492         0.009071570593439809     13.880583874326963       8755.98605338795         -4.76654597940508        0.009071570593439809     13.880583874326963
20.327261365752566        0.0090393073732451       14.034854949276058       8755.998770518636        -4.85131006281886        0.0090393073732451       14.034854949276058
20.420587624350297        0.009006794037038806     14.189327986685145       8756.013792915406        -4.936555232792557       0.009006794037038806     14.189327986685145
20.513432796388113        0.00897403058482093      14.344002986554223       8756.031120578264        -5.0222814893261685      0.00897403058482093      14.344002986554223
20.605796881866013        0.00894101701659147      14.49887994888329        8756.050753507205        -5.108488832419695       0.00894101701659147      14.49887994888329
20.69778332699917         0.008911998095278265     14.653959695070037       8756.115808592982        -5.195073815857969       0.008911998095278265     14.65395969507004
20.789418576622335        0.008883378871059723     14.809157323444152       8756.173480822554        -5.282009994806236       0.008883378871059723     14.809157323444156
20.8807026307355          0.008855159343935845     14.964472834005639       8756.223770195917        -5.369297369264498       0.008855159343935845     14.964472834005637
20.971635489338674        0.00882733951390663      15.11990622675449        8756.266676713074        -5.4569359392327526      0.00882733951390663      15.11990622675449
21.062217152431852        0.008799919380972078     15.27545750169071        8756.302200374024        -5.544925704711002       0.008799919380972078     15.27545750169071
21.15244762001504         0.008772898945132189     15.431126658814295       8756.330341178767        -5.633266665699244       0.008772898945132189     15.431126658814296
21.242326892088233        0.008746278206386965     15.586913698125253       8756.351099127303        -5.7219588221974815      0.008746278206386965     15.586913698125253
21.33185496865143         0.008720057164736405     15.742818619623577       8756.364474219634        -5.811002174205711       0.008720057164736405     15.742818619623577
21.421128697565084        0.008688885163727482     15.898830372537663       8756.413392319333        -5.900299873863487       0.008688885163727482     15.898830372537663
21.51017915798586         0.008658319391142505     16.05488937939031        8756.465420443434        -5.989820842014136       0.008658319391142503     16.05488937939031
21.599006349913772        0.008628359846981468     16.210995640181526       8756.520558591938        -6.079565078657657       0.008628359846981468     16.210995640181526
21.687610273348806        0.008599006531244376     16.3671491549113         8756.578806764841        -6.169532583794052       0.008599006531244376     16.3671491549113
21.775990928290966        0.008570259443931225     16.52334992357964        8756.640164962148        -6.259723357423319       0.008570259443931225     16.52334992357964
21.864148314740255        0.008542118585042021     16.67959794618654        8756.704633183856        -6.350137399545458       0.00854211858504202      16.679597946186544
21.95208243269667         0.008514583954576759     16.835893222732008       8756.772211429965        -6.440774710160471       0.008514583954576759     16.835893222732008
22.039793282160215        0.008487655552535438     16.992235753216036       8756.842899700478        -6.5316352892683565      0.008487655552535438     16.992235753216036
22.127360669191262        0.008443431027301362     17.148567671082755       8756.913920401405        -6.622639330808738       0.008443431027301362     17.148567671082755
22.214832738623933        0.008407067328652198     17.304876379913125       8757.013217977506        -6.713738689947495       0.008407067328652198     17.30487637991312
22.302209490458228        0.008378564456587948     17.46116187970714        8757.14079242878         -6.804933366684625       0.008378564456587948     17.46116187970714
22.38949092469415         0.008357922411108611     17.617424170464805       8757.296643755226        -6.896223361020131       0.008357922411108611     17.617424170464805
22.476677041331698        0.00834514119221419      17.773663252186118       8757.480771956845        -6.9876086729540114      0.00834514119221419      17.773663252186118
22.563767840370875        0.008340220799904681     17.92987912487108        8757.693177033638        -7.079089302486264       0.00834022079990468      17.92987912487108
22.65076332181167         0.008343161234180085     18.08607178851969        8757.933858985602        -7.170665249616893       0.008343161234180085     18.086071788519686
22.7376634856541          0.008353962495040402     18.242241243131943       8758.20281781274         -7.262336514345896       0.008353962495040402     18.242241243131943
