% Model:              20-15-10--20-5-5(base).mph
% Version:            COMSOL 6.1.0.252
% Date:               Sep 6 2024, 17:16
% Dimension:          3
% Nodes:              225
% Expressions:        4
% Description:        线
% x                       y                        z                        磁标势                      u                        v                        w
3.0865713928898257        0.007975928689771232     0.3830962509369058       8754.504569389785        0.08657139288982675      0.007975928689771232     0.3830962509369058
3.2121724619810865        0.00785578816873236      0.41591637116209224      8754.53128131494         0.08717246198108695      0.00785578816873236      0.4159163711620922
3.3373781858517013        0.0077381576545530115    0.4499216000279097       8754.557627280235        0.08737818585170168      0.0077381576545530115    0.4499216000279097
3.4621885645016706        0.007623037147233185     0.48511193753435833      8754.583607285676        0.08718856450167092      0.007623037147233185     0.48511193753435833
3.5866035979309947        0.007510426646772884     0.521487383681438        8754.609221331257        0.08660359793099469      0.007510426646772884     0.521487383681438
3.7106232861396724        0.0074003261531721065    0.5590479384691488       8754.63446941698         0.08562328613967296      0.0074003261531721065    0.5590479384691489
3.8342476291277063        0.007292735666430852     0.5977936018974908       8754.659351542845        0.08424762912770575      0.007292735666430852     0.5977936018974908
3.957476626895093         0.007187655186549122     0.6377243739664638       8754.683867708853        0.08247662689509305      0.007187655186549122     0.6377243739664638
4.080310279441835         0.007085084713526916     0.6788402546760679       8754.708017915003        0.08031027944183487      0.007085084713526916     0.6788402546760679
2.0699327093506823        0.008760575465355306     0.16715396332159188      8754.334703528943        0.06993270935068299      0.008760575465355306     0.16715396332159188
2.198163170786415         0.008669083794706255     0.18954948700160001      8754.38872881189         0.07316317078641557      0.008669083794706255     0.18954948700160001
2.3260648819383367        0.008575709502257502     0.21325851418786707      8754.433384937593        0.07606488193833683      0.008575709502257502     0.213258514187867
2.453637842806447         0.008480452588009045     0.2382810448803929       8754.46867190606         0.07863784280644677      0.008480452588009045     0.2382810448803929
2.580882053390745         0.008383313051960887     0.2646170790791777       8754.494589717284        0.08088205339074539      0.008383313051960887     0.2646170790791777
2.7077975136912324        0.008284290894113026     0.2922666167842214       8754.511138371268        0.0827975136912327       0.008284290894113026     0.29226661678422144
2.834384223707908         0.008183386114465464     0.321229657995524        8754.518317868014        0.0843842237079087       0.008183386114465464     0.321229657995524
2.960642183440773         0.0080805987130182       0.3515062027130854       8754.516128207519        0.08564218344077337      0.0080805987130182       0.3515062027130854
4.2027292293042935        0.006990975147135446     0.7210150704648429       8754.72566993179         0.07772922930429291      0.006990975147135446     0.7210150704648429
4.324711567684115         0.006933736223417068     0.7642802297915807       8754.744299179236        0.07471156768411392      0.00693373622341707      0.7642802297915807
4.446257294581298         0.006913367942371786     0.8086357326562811       8754.763905657343        0.07125729458129793      0.006913367942371786     0.8086357326562811
4.567366409995845         0.006929870303999595     0.8540815790589441       8754.784489366111        0.06736640999584491      0.006929870303999595     0.8540815790589441
4.6880389139277545        0.006983243308300499     0.90061776899957         8754.80605030554         0.06303891392775487      0.006983243308300499     0.90061776899957
4.808274806377028         0.007073486955274496     0.9482443024781584       8754.828588475628        0.05827480637702783      0.007073486955274495     0.9482443024781584
4.928074087343664         0.007200601244921586     0.9969611794947096       8754.852103876377        0.05307408734366377      0.007200601244921586     0.9969611794947094
5.047436756827663         0.007364586177241769     1.0467684000492234       8754.876596507787        0.04743675682766269      0.007364586177241769     1.0467684000492234
1.0360588448687664        0.009499724331933763     0.038493714435966796     8753.815328378878        0.03605884486876656      0.009499724331933763     0.038493714435966796
1.166026108382206         0.009445574828476374     0.0496185190024702       8753.90207818102         0.041026108382206224     0.009445574828476374     0.0496185190024702
1.2957839346233027        0.009380498437914726     0.062159816867316385     8753.982591437909        0.045783934623303        0.009380498437914725     0.062159816867316385
1.4253323235920565        0.009304495160248814     0.07611760803050534      8754.056868149546        0.05033232359205688      0.009304495160248812     0.07611760803050534
1.5546712752884675        0.009217564995478636     0.0914918924920371       8754.124908315931        0.05467127528846788      0.009217564995478636     0.0914918924920371
1.6838007897125353        0.009119707943604198     0.10828267025191163      8754.186711937062        0.058800789712535995     0.009119707943604198     0.10828267025191161
1.8127208668642605        0.0090109240046255       0.12648994131012894      8754.242279012942        0.06272086686426122      0.009010924004625498     0.12648994131012894
1.9414315067436432        0.008891213178542532     0.14611370566668902      8754.291609543568        0.06643150674364355      0.008891213178542532     0.14611370566668902
0                         0                        0                        8751.701307472458        0                        0                        0
0.1289286305684408        0.0027792905184800872    4.978715263404485E-4     8752.10824414999         0.0039286305684408055    0.0027792905184800872    4.978715263404485E-4
0.25802261114835445       0.005103773900677785     0.0022282695607252984    8752.474413952026        0.008022611148354473     0.005103773900677785     0.0022282695607252984
0.38728194173974095       0.006973450146593089     0.005191194103154546     8752.799816878569        0.012281941739741        0.006973450146593089     0.005191194103154546
0.5167066223426003        0.008388319256226006     0.009386645153628196     8753.084452929617        0.01670662234260039      0.008388319256226006     0.009386645153628196
0.6462966529569325        0.00934838122957653      0.014814622712146244     8753.328322105173        0.02129665295693264      0.00934838122957653      0.014814622712146244
0.7760520335827377        0.009853636066644666     0.021475126778708692     8753.531424405235        0.026052033582737753     0.009853636066644666     0.021475126778708692
0.9059727642200155        0.00990408376743041      0.029368157353315546     8753.693759829803        0.030972764220015728     0.00990408376743041      0.029368157353315542
7.739022594513585         0.006630844035466416     2.59902166809875         8754.892047412573        -0.2609774054864134      0.006630844035466416     2.59902166809875
7.84251531408894          0.0065391631946229885    2.6764101459964076       8754.894456315762        -0.2824846859110582      0.0065391631946229885    2.6764101459964076
7.9453049875984805        0.0064486643745720225    2.7546082320049314       8754.897140458981        -0.3046950124015171      0.0064486643745720225    2.7546082320049314
8.047391615042207         0.006359347575313515     2.8336159261243217       8754.900099842223        -0.3276083849577901      0.006359347575313514     2.8336159261243217
8.14877519642012          0.006271212796847467     2.913433228354579        8754.903334465494        -0.35122480357987723     0.006271212796847467     2.913433228354579
8.249455731732217         0.006184260039173878     2.994060138695703        8754.906844328792        -0.3755442682677785      0.006184260039173878     2.994060138695703
8.349433220978502         0.006098489302292749     3.0754966571476943       8754.91062943212         -0.40056677902149385     0.006098489302292749     3.0754966571476943
8.448707664158974         0.006013900586204079     3.1577427837105514       8754.91468977547         -0.4262923358410233      0.006013900586204079     3.157742783710552
8.54727906127363          0.005930493890907869     3.2407985183842762       8754.919025358851        -0.4527209387263669      0.005930493890907869     3.2407985183842762
5.987623273367328         0.00803285299082188      1.4926030965006059       8754.842913110313        -0.01237672663267244     0.00803285299082188      1.4926030965006059
6.102307348001127         0.007920774715265382     1.5538688226192645       8754.846352765724        -0.02269265199887237     0.007920774715265382     1.5538688226192643
6.216299141029926         0.007811316083891205     1.6162270221051631       8754.851556535397        -0.03370085897007502     0.007811316083891205     1.6162270221051631
6.329598652453719         0.007704477096699348     1.6796776949583023       8754.858524419333        -0.04540134754628037     0.007704477096699348     1.6796776949583025
6.4422058822725115        0.00760025775368981      1.7442208411786821       8754.86725641753         -0.05779411772748844     0.00760025775368981      1.7442208411786821
6.5541208304863           0.007498658054862595     1.8098564607663021       8754.87775252999         -0.07087916951369921     0.0074986580548625946    1.8098564607663021
6.665343497095087         0.0073996780002177       1.8765845537211627       8754.890012756712        -0.08465650290491271     0.007399678000217699     1.8765845537211627
6.77587388209887          0.007303317589755124     1.9444051200432637       8754.904037097698        -0.09912611790112891     0.007303317589755124     1.9444051200432635
6.885711985497651         0.00720957682347487      2.013318159732605        8754.919825552945        -0.11428801450234782     0.00720957682347487      2.013318159732605
6.994884452123295         0.00713755085549743      2.083232042821965        8754.912082126892        -0.13011554787670335     0.00713755085549743      2.083232042821965
7.103340164320755         0.007065434707370387     2.1540885131845844       8754.905559031838        -0.14665983567924534     0.007065434707370387     2.1540885131845844
7.211079122090026         0.006993228379093739     2.225887570820463        8754.900256267789        -0.1639208779099738      0.006993228379093739     2.225887570820463
7.318101325431111         0.006920931870667485     2.2986292157296018       8754.896173834743        -0.18189867456888878     0.006920931870667485     2.2986292157296018
7.424406774344009         0.006848545182091625     2.372313447911999        8754.893311732698        -0.20059322565599022     0.006848545182091625     2.3723134479119996
7.529995468828721         0.006776068313366162     2.446940267367657        8754.891669961653        -0.22000453117127813     0.006776068313366162     2.446940267367657
7.634867408885246         0.006703501264491091     2.5225096740965736       8754.891248521613        -0.24013259111475252     0.006703501264491091     2.5225096740965736
5.167100347931323         0.0076153079123629005    1.0982491512153818       8754.857129729218        0.04210034793132377      0.0076153079123629005    1.0982491512153818
5.286152431453212         0.00781826153793443      1.1509437840644727       8754.842021908902        0.036152431453212584     0.00781826153793443      1.1509437840644725
5.404593007393329         0.007973447053956348     1.2048522985964967       8754.831273046839        0.02959300739332911      0.007973447053956348     1.2048522985964965
5.522422075751673         0.008080864460428666     1.259974694811453        8754.824883143028        0.022422075751673355     0.008080864460428666     1.259974694811453
5.639639636528245         0.008140513757351378     1.316310972709342        8754.82285219747         0.014639636528245325     0.008140513757351378     1.316310972709342
5.756245689723045         0.008152394944724483     1.3738611322901642       8754.825180210166        0.006245689723045017     0.008152394944724483     1.373861132290164
5.872240235336073         0.008116508022547984     1.4326251735539186       8754.831867181112        -0.0027597646639275727   0.008116508022547984     1.4326251735539186
8.64523571579645          0.005863156612034971     3.3245139054768784       8754.931525940276        -0.4797642842035468      0.005863156612034971     3.3245139054768784
8.742517267924832         0.005854401265752863     3.408957354197164        8754.94532179295         -0.507482732075165       0.005854401265752863     3.408957354197164
8.839123717658776         0.005904227852061544     3.494128864545133        8754.960412916871        -0.5358762823412215      0.005904227852061544     3.494128864545133
8.935055064998283         0.006012636370961016     3.5800284365207853       8754.976799312039        -0.5649449350017162      0.006012636370961016     3.5800284365207853
9.030311309943349         0.006179626822451277     3.66665607012412         8754.994480978454        -0.5946886900566491      0.006179626822451277     3.66665607012412
9.12489245249398          0.006405199206532329     3.7540117653551386       8755.013457916115        -0.6251075475060204      0.006405199206532329     3.7540117653551386
9.21879849265017          0.00668935352320417      3.84209552221384         8755.033730125024        -0.65620150734983        0.00668935352320417      3.84209552221384
9.312029430411922         0.0070320897724668015    3.930907340700225        8755.05529760518         -0.6879705695880778      0.0070320897724668015    3.930907340700225
9.415284327455696         0.007237499343086594     4.031768603794954        8755.036666584872        -0.7236045614331957      0.007237499343086594     4.031768603794954
9.51743651447372          0.007411668781628392     4.133591036354825        8755.018331641579        -0.7603412633040595      0.007411668781628392     4.133591036354825
9.618485991466            0.007554598088092198     4.236374638379838        8755.000292775296        -0.7981806752006695      0.007554598088092198     4.236374638379838
9.718432758432533         0.00766628726247801      4.340119409869994        8754.982549986025        -0.8371227971230253      0.00766628726247801      4.340119409869994
9.817276815373319         0.007746736304785829     4.444825350825291        8754.965103273767        -0.8771676290711272      0.007746736304785829     4.444825350825291
9.91501816228836          0.007795945215015655     4.55049246124573         8754.94795263852         -0.9183151710449751      0.007795945215015655     4.55049246124573
10.011656799177656        0.007813913993167488     4.657120741131311        8754.931098080287        -0.9605654230445689      0.00781391399316749      4.657120741131311
10.107192726041204        0.007800642639241329     4.764710190482034        8754.914539599065        -1.0039183850699087      0.007800642639241329     4.764710190482034
10.20129247346737         0.007646644735412657     4.873517827768035        8754.921694152903        -1.048707526532632       0.007646644735412657     4.873517827768035
10.29432051370322         0.007515591416233204     4.9831766184229025       8754.930261748663        -1.09456837518567        0.007515591416233204     4.9831766184229025
10.386276846748755        0.007407482681702965     5.093686562446631        8754.940242386347        -1.1415009310290234      0.007407482681702965     5.093686562446631
10.477161472603976        0.007322318531821939     5.205047659839224        8754.951636065953        -1.1895051940626915      0.007322318531821939     5.205047659839224
10.566974391268882        0.00726009896659013      5.317259910600681        8754.964442787483        -1.2385811642866746      0.00726009896659013      5.317259910600681
10.655715602743472        0.007220823986007537     5.430323314731003        8754.978662550935        -1.2887288417009728      0.007220823986007537     5.430323314731003
10.743385107027745        0.007204493590074159     5.544237872230187        8754.994295356311        -1.339948226305586       0.00720449359007416      5.544237872230187
10.829982904121707        0.0072111077787899965    5.659003583098236        8755.011341203612        -1.3922393181005142      0.0072111077787899965    5.659003583098236
10.915012530836947        0.007101099174669111     5.774387436497783        8755.019231131764        -1.4460985802741617      0.007101099174669111     5.774387436497782
10.999030593197835        0.007013076522947274     5.890433397780376        8755.024611071227        -1.500969406802163       0.007013076522947274     5.890433397780375
11.082037091204368        0.006947039823624486     6.007141466946013        8755.027481021998        -1.556851797684519       0.006947039823624486     6.007141466946013
11.164032024856548        0.006902989076700746     6.1245116439946985       8755.02784098408         -1.6137457529212287      0.006902989076700746     6.1245116439946985
11.245015394154374        0.006880924282176053     6.2425439289264295       8755.02569095747         -1.6716512725122923      0.006880924282176053     6.2425439289264295
11.324987199097844        0.0068808454400504085    6.361238321741206        8755.02103094217         -1.7305683564577101      0.0068808454400504085    6.361238321741205
11.403947439686961        0.006902752550323812     6.480594822439029        8755.013860938177        -1.790497004757482       0.006902752550323812     6.480594822439029
11.481896115921726        0.006946645612996264     6.600613431019897        8755.004180945494        -1.851437217411608       0.006946645612996264     6.600613431019897
11.55847222182754         0.006905030530822441     6.721223897381116        8755.001425390814        -1.9137500003946857      0.006905030530822441     6.721223897381116
11.634123925356514        0.006876405133955051     6.842351087680306        8754.997139481966        -1.9769871857546         0.006876405133955051     6.842351087680306
11.708851226508651        0.006860769422394093     6.963995001917471        8754.991323218952        -2.041148773491351       0.006860769422394093     6.963995001917471
11.782654125283953        0.006858123396139567     7.086155640092606        8754.98397660177         -2.106234763604939       0.006858123396139567     7.086155640092606
11.855532621682418        0.006868467055191473     7.208833002205713        8754.975099630423        -2.1722451560953635      0.006868467055191474     7.208833002205713
11.927486715704045        0.006891800399549813     7.332027088256792        8754.964692304908        -2.2391799509626247      0.0068918003995498125    7.332027088256793
11.998516407348836        0.006928123429214584     7.455737898245845        8754.952754625225        -2.3070391482067225      0.006928123429214584     7.455737898245845
12.06862169661679         0.0069774361441857875    7.579965432172869        8754.939286591376        -2.3758227478276566      0.0069774361441857875    7.579965432172869
12.13744978059999         0.006961646546650694     7.704639477666656        8754.952755545257        -2.4458835527333442      0.006961646546650694     7.704639477666656
12.205441626504737        0.0069556137952008065    7.829718489711599        8754.964810126407        -2.516780595717487       0.0069556137952008065    7.829718489711597
12.272597234331027        0.006959337889836128     7.955202468307695        8754.975450334827        -2.588513876780086       0.006959337889836128     7.955202468307695
12.33891660407886         0.006972818830556655     8.081091413454944        8754.984676170514        -2.661083395921141       0.006972818830556655     8.081091413454944
12.40439973574824         0.00699605661736239      8.20738532515335         8754.99248763347         -2.7344891531406508      0.006996056617362391     8.20738532515335
12.469046629339159        0.007029051250253332     8.334084203402908        8754.998884723693        -2.808731148438617       0.007029051250253332     8.334084203402908
12.532857284851628        0.007071802729229482     8.46118804820362         8755.003867441186        -2.883809381815039       0.007071802729229482     8.46118804820362
12.59583170228564         0.007124311054290838     8.588696859555489        8755.007435785948        -2.959723853269916       0.007124311054290838     8.588696859555489
12.657662770317664        0.007120844808166722     8.71653273971162         8755.031689013249        -3.0367816741267797      0.007120844808166722     8.71653273971162
12.71874307010142         0.007126110061301027     8.844685131211607        8755.054078057203        -3.114590263231913       0.007126110061301027     8.844685131211607
12.779072601636907        0.007140106813693757     8.973154034055453        8755.074602917808        -3.193149620585316       0.007140106813693755     8.973154034055455
12.838651364924122        0.007162835065344907     9.10193944824316         8755.093263595067        -3.2724597461869886      0.007162835065344907     9.10193944824316
12.897479359963068        0.007194294816254479     9.231041373774723        8755.110060088979        -3.352520640036931       0.007194294816254479     9.231041373774723
12.955556586753746        0.0072344860664224735    9.360459810650143        8755.124992399546        -3.433332302135144       0.0072344860664224735    9.360459810650143
13.012883045296153        0.007283408815848891     9.490194758869423        8755.138060526764        -3.5148947324816264      0.007283408815848891     9.490194758869421
13.06945873559029         0.00734106306453373      9.620246218432557        8755.149264470636        -3.5972079310763787      0.00734106306453373      9.620246218432557
13.125019819528212        0.0073426290670112904    9.750536050520967        8755.142500359818        -3.6805357360273465      0.0073426290670112904    9.750536050520967
13.179912337047444        0.007348350941831218     9.881070866324439        8755.13526013407         -3.7645321073970033      0.007348350941831218     9.881070866324439
13.234136288147987        0.007358228688993514     10.011850665842978       8755.127543793384        -3.8491970451853494      0.007358228688993514     10.011850665842978
13.28769167282984         0.007372262308498178     10.142875449076579       8755.119351337766        -3.9345305493923846      0.007372262308498178     10.142875449076579
13.340578491093007        0.00739045180034521      10.274145216025245       8755.110682767212        -4.020532620018108       0.00739045180034521      10.274145216025245
13.392796742937483        0.00741279716453461      10.40565996668898        8755.101538081724        -4.107203257062522       0.00741279716453461      10.405659966688978
13.44434642836327         0.007439298401066379     10.537419701067776       8755.091917281303        -4.194542460525623       0.007439298401066379     10.537419701067776
13.495227547370366        0.007469955509940515     10.669424419161638       8755.081820365947        -4.282550230407415       0.007469955509940515     10.669424419161638
13.545252334030003        0.007532358345562717     10.801576184456032       8755.077234374136        -4.371414332636665       0.007532358345562717     10.801576184456032
13.59467674398772         0.007583460450188697     10.933911398359603       8755.070469330693        -4.460878811567839       0.007583460450188697     10.933911398359601
13.643500777243508        0.007623261823818457     11.06643006087235        8755.061525235618        -4.5509436672009365      0.007623261823818457     11.06643006087235
13.691724433797376        0.007651762466451994     11.19913217199427        8755.050402088913        -4.641608899535959       0.007651762466451994     11.19913217199427
13.73934771364932         0.007668962378089309     11.332017731725367       8755.037099890578        -4.7328745085729045      0.007668962378089309     11.332017731725365
13.786370616799337        0.0076748615587303995    11.46508674006564        8755.021618640612        -4.824740494311774       0.0076748615587303995    11.465086740065638
13.832793143247432        0.007669460008375271     11.598339197015088       8755.003958339015        -4.917206856752568       0.007669460008375271     11.598339197015086
13.878615292993606        0.007652757727023918     11.73177510257371        8754.984118985789        -5.010273595895285       0.007652757727023918     11.73177510257371
13.923700267181964        0.007593536482317719     11.865375020051985       8755.005567537886        -5.104077510595814       0.007593536482317719     11.865375020051985
13.968273895033912        0.007550226700506273     11.999111478277689       8755.02635434485         -5.198392771632757       0.007550226700506273     11.999111478277689
14.012336176549441        0.007522828381589578     12.132984477250822       8755.046479406687        -5.293219379006114       0.007522828381589578     12.132984477250824
14.05588711172856         0.007511341525567635     12.266994016971386       8755.06594272339         -5.388557332715883       0.007511341525567635     12.266994016971386
14.098926700571267        0.007515766132440442     12.401140097439377       8755.084744294963        -5.484406632762066       0.007515766132440442     12.401140097439379
14.141454943077562        0.007536102202208002     12.5354227186548         8755.102884121407        -5.580767279144663       0.007536102202208002     12.5354227186548
14.183471839247439        0.007572349734870313     12.669841880617653       8755.120362202719        -5.677639271863673       0.007572349734870313     12.669841880617653
14.224977389080905        0.007624508730427376     12.804397583327933       8755.1371785389          -5.775022610919096       0.007624508730427376     12.804397583327933
14.265875560171926        0.007668088690650781     12.939104561997944       8755.12585590227         -5.873013328716963       0.00766808869065078      12.939104561997944
14.306322019450954        0.007706257179517117     13.073911165850594       8755.116102313763        -5.971455758326824       0.007706257179517117     13.073911165850594
14.346316766917987        0.007739014197026387     13.208817394885882       8755.107917773375        -6.070349899748679       0.007739014197026387     13.208817394885884
14.385859802573028        0.007766359743178589     13.343823249103812       8755.101302281111        -6.169695752982528       0.007766359743178589     13.343823249103812
14.424951126416074        0.0077882938179737226    13.47892872850438        8755.096255836968        -6.2694933180283705      0.0077882938179737226    13.47892872850438
14.463590738447127        0.007804816421411791     13.614133833087585       8755.092778440947        -6.369742594886206       0.007804816421411791     13.614133833087585
14.501778638666188        0.007815927553492792     13.749438562853431       8755.090870093049        -6.470443583556034       0.00781592755349279      13.749438562853431
14.539514827073253        0.007821627214216724     13.884842917801917       8755.090530793272        -6.571596284037858       0.007821627214216724     13.884842917801917
14.57667710769028         0.007777702944081778     14.020330614416775       8755.092920990994        -6.673322892309721       0.007777702944081776     14.020330614416778
14.613462120367112        0.007748263885243907     14.155888285039612       8755.095453322905        -6.775426768521776       0.007748263885243907     14.155888285039612
14.64986986510375         0.00773331003770311      14.291515929670421       8755.098127789013        -6.877907912674028       0.007733310037703108     14.291515929670421
14.685900341900194        0.007732841401459387     14.427213548309208       8755.100944389313        -6.980766324766472       0.007732841401459387     14.427213548309208
14.721553550756443        0.007746857976512741     14.562981140955968       8755.103903123805        -7.084002004799111       0.007746857976512741     14.562981140955968
14.756829491672502        0.0077753597628631675    14.698818707610704       8755.107003992493        -7.187614952771944       0.0077753597628631675    14.698818707610704
14.791728164648365        0.00781834676051067      14.834726248273412       8755.110246995371        -7.2916051686849706      0.00781834676051067      14.834726248273414
14.826249569684032        0.007875818969455247     14.9707037629441         8755.113632132443        -7.395972652538191       0.007875818969455247     14.9707037629441
14.860324849971128        0.007829943052510412     15.106787448852945       8755.126726595618        -7.500786261139982       0.00782994305251041      15.106787448852945
14.89407721320822         0.007799127864701035     15.242933149803557       8755.14055994064         -7.605922786791781       0.007799127864701035     15.242933149803553
14.927506659395306        0.0077833734060271135    15.379140865795927       8755.15513216751         -7.711382229493582       0.0077833734060271135    15.379140865795927
14.960613188532387        0.0077826796764886505    15.515410596830067       8755.170443276233        -7.817164589245392       0.0077826796764886505    15.515410596830067
14.993396800619463        0.007797046676085645     15.651742342905967       8755.186493266801        -7.923269866047207       0.007797046676085645     15.651742342905967