% Model:              20-15-10--20-5-5(base).mph
% Version:            COMSOL 6.1.0.252
% Date:               Sep 6 2024, 17:15
% Dimension:          3
% Nodes:              225
% Expressions:        4
% Description:        线
% x                       y                        z                        磁标势                      u                        v                        w
3.031375492112851         0.002520410575418337     0.10305486155022973      3979.0964709614923       0.031375492112852135     0.002520410575418337     0.10305486155022973
3.157476039957083         0.002510694754662426     0.11211143877280362      3979.1220300065497       0.032476039957083966     0.002510694754662426     0.11211143877280362
3.2835405878867747        0.002501855847905364     0.12153069517935142      3979.1461460454184       0.03354058788677549      0.002501855847905364     0.12153069517935142
3.4095691359019265        0.002493893855147152     0.13131263076987304      3979.168819078097        0.03456913590192671      0.002493893855147152     0.13131263076987304
3.5355616840025372        0.0024868087763877888    0.14145724554436853      3979.190049104586        0.03556168400253763      0.0024868087763877888    0.14145724554436853
3.6615182321886084        0.0024806006116272748    0.1519645395028379       3979.209836124885        0.03651823218860826      0.0024806006116272748    0.15196453950283786
3.7874387804601386        0.0024752693608656104    0.1628345126452811       3979.2281801389936       0.03743878046013858      0.00247526936086561      0.1628345126452811
3.9133233288171287        0.002470815024102795     0.17406716497169816      3979.245081146913        0.03832332881712859      0.002470815024102795     0.1740671649716982
4.039171877259578         0.002467237601338829     0.18566249648208913      3979.2605391486422       0.039171877259578304     0.002467237601338829     0.18566249648208913
2.021519126251125         0.002594989043405256     0.04417033296804072      3978.932430151124        0.021519126251125478     0.002594989043405256     0.04417033296804072
2.1478556757732896        0.0025838389790934467    0.0502045183666402       3978.974768741413        0.02285567577328991      0.0025838389790934467    0.050204518366640194
2.274162367069897         0.002573211130728336     0.05661766967214658      3979.0108691919895       0.024162367069897595     0.002573211130728336     0.05661766967214658
2.400439200140948         0.0025631054983099224    0.06340978688455985      3979.040731502854        0.025439200140948543     0.002563105498309923     0.06340978688455987
2.526686174986442         0.002553522081838209     0.07058087000388004      3979.064355674006        0.026686174986442747     0.002553522081838209     0.07058087000388004
2.6529032916063797        0.0025444608813131927    0.0781309190301071       3979.081741705446        0.027903291606380207     0.002544460881313193     0.07813091903010712
2.77909055000076          0.002535921896734876     0.08605993396324109      3979.092889597174        0.029090550000760926     0.002535921896734876     0.08605993396324109
2.905247950169584         0.002527905128103257     0.09436791480328197      3979.097799349189        0.0302479501695849       0.002527905128103257     0.09436791480328197
4.164984484929221         0.0024666981019823273    0.19760006119758933      3979.27593002416         0.03998448492921998      0.0024666981019823273    0.19760006119758933
4.290759417896182         0.0024785890689789382    0.20989363963391383      3979.2916300682814       0.04075941789618153      0.0024785890689789382    0.20989363963391383
4.416496676160464         0.0025029105023286627    0.22254323179106267      3979.3076392810067       0.041496676160462966     0.0025029105023286627    0.22254323179106267
4.542196259722065         0.0025396624020314995    0.2355488376690358       3979.323957662335        0.042196259722064276     0.0025396624020314995    0.2355488376690358
4.667858168580986         0.00258884476808745      0.24891045726783328      3979.3405852122673       0.04285816858098547      0.00258884476808745      0.24891045726783328
4.793482402737228         0.002650457600496513     0.262628090587455        3979.3575219308027       0.043482402737226554     0.002650457600496513     0.26262809058745507
4.919068962190788         0.0027245008992586887    0.2767017376279011       3979.3747678179416       0.04406896219078751      0.0027245008992586887    0.2767017376279011
5.0446178469416685        0.002810974664373978     0.2911313983891715       3979.3923228736844       0.04461784694166834      0.002810974664373978     0.2911313983891715
1.0101573513972142        0.002660683377459327     0.009928730803113295     3978.4444733904766       0.01015735139721437      0.002660683377459327     0.009928730803113295
1.1366373855118488        0.0026605130647822436    0.012842061102089028     3978.526534173484        0.011637385511849287     0.0026605130647822436    0.012842061102089028
1.2631003304099422        0.0026580451866538243    0.016145925678676246     3978.602576045656        0.013100330409942481     0.0026580451866538243    0.016145925678676246
1.3895461860914937        0.002653279743074069     0.019840324532874945     3978.672599006991        0.014546186091493952     0.002653279743074069     0.019840324532874945
1.5159749525565034        0.002646216734042978     0.023925257664685128     3978.73660305749         0.015974952556503705     0.002646216734042978     0.023925257664685128
1.6423866298049714        0.0026368561595605513    0.028400725074106802     3978.7945881971527       0.01738662980497173      0.0026368561595605513    0.0284007250741068
1.7687812178368978        0.0026251980196267885    0.03326672676113995      3978.84655442598         0.018781217836898033     0.0026251980196267885    0.03326672676113995
1.8951587166522823        0.00261124231424169      0.038523262725784595     3978.89250174397         0.020158716652282617     0.00261124231424169      0.038523262725784595
0                         0                        0                        3976.6456150018644       0                        0                        0
0.1260593830584911        7.622816820382876E-4     9.690784306805279E-5     3976.9805607871913       0.00105938305849114      7.622816820382876E-4     9.690784306805284E-5
0.2521788477930281        0.001401793004117755     5.207252596564225E-4     3977.284052719161        0.002178847793028182     0.001401793004117755     5.207252596564225E-4
0.378358394203611         0.0019185339662384018    0.0012714522497651092    3977.5560907977733       0.0033583942036111256    0.0019185339662384018    0.0012714522497651092
0.5045980222902399        0.002312504568400228     0.0023490888133941125    3977.796675023029        0.00459802229023997      0.002312504568400228     0.0023490888133941125
0.6308977320529146        0.0025837048106032334    0.003753634950543433     3978.0058053949265       0.005897732052914718     0.0025837048106032334    0.003753634950543433
0.7572575234916351        0.0027321346928474185    0.00548509066121307      3978.1834819134674       0.007257523491635366     0.0027321346928474185    0.00548509066121307
0.8836773966064017        0.0027577942151327827    0.007543455945403025     3978.3297045786508       0.008677396606401917     0.002757794215132783     0.007543455945403025
8.04534659321232          0.0035013198594604257    0.7650085925865647       3979.454110197913        0.0453465932123212       0.0035013198594604257    0.7650085925865647
8.169403293273245         0.003516483761222193     0.7898549928043915       3979.4559609115418       0.0444032932732485       0.003516483761222193     0.7898549928043914
8.293370867042833         0.0035326255249346523    0.8150797852855574       3979.457999572657        0.04337086704283778      0.0035326255249346523    0.8150797852855574
8.417249314521088         0.003549745150597805     0.8406829700300622       3979.4602261812583       0.042249314521089085     0.003549745150597805     0.8406829700300622
8.541038635707999         0.0035678426382116496    0.8666645470379061       3979.4626407373444       0.04103863570800238      0.0035678426382116496    0.8666645470379061
8.664738830603575         0.003586917987776187     0.8930245163090889       3979.4652432409166       0.039738830603577684     0.003586917987776187     0.8930245163090889
8.78834989920781          0.003606971199291417     0.9197628778436109       3979.4680336919746       0.038349899207814994     0.003606971199291417     0.9197628778436109
8.911871841520712         0.00362800227275734      0.9468796316414718       3979.4710120905183       0.0368718415207143       0.00362800227275734      0.9468796316414718
9.035304657542273         0.0036500112081739554    0.9743747777026719       3979.4741784365483       0.03530465754227561      0.0036500112081739554    0.9743747777026719
6.049366137174701         0.003295676217720717     0.4221210242684982       3979.4017058728573       0.04936613717470112      0.003295676217720717     0.4221210242684982
6.174693665404108         0.0032998484056939543    0.44044623891539025      3979.405805226267        0.049693665404108175     0.0032998484056939543    0.44044623891539025
6.299946146985694         0.003305086639389178     0.45919154509045257      3979.410243305844        0.049946146985695265     0.003305086639389178     0.45919154509045257
6.425123581919462         0.0033113909188063886    0.47835694279368524      3979.415020111587        0.05012358191946241      0.0033113909188063886    0.47835694279368535
6.550225970205409         0.003318761243945585     0.49794243202508837      3979.420135643497        0.050225970205409594     0.003318761243945585     0.49794243202508837
6.675253311843536         0.0033271976148067676    0.5179480127846618       3979.4255899015734       0.05025331184353681      0.0033271976148067676    0.5179480127846618
6.800205606833843         0.0033367000313899373    0.5383736850724056       3979.431382885816        0.050205606833844084     0.0033367000313899377    0.5383736850724056
6.92508285517633          0.003347268493695093     0.5592194488883198       3979.437514596226        0.05008285517633139      0.003347268493695093     0.5592194488883198
7.049885056870998         0.003358903001722235     0.5804853042324043       3979.4439850328017       0.049885056870998735     0.003358903001722235     0.5804853042324043
7.174614675131374         0.0033741676114165922    0.6021556081449984       3979.4454626175616       0.04961467513137512      0.0033741676114165922    0.6021556081449986
7.299259457329548         0.0033901572204032113    0.6242245140952143       3979.446879648287        0.04925945732954836      0.0033901572204032104    0.6242245140952144
7.423819403465518         0.003406871828682092     0.6466920220830521       3979.448236124978        0.04881940346551841      0.0034068718286820922    0.646692022083052
7.548294513539284         0.0034243114362532347    0.6695581321085112       3979.449532047634        0.04829451353928531      0.0034243114362532347    0.6695581321085112
7.672684787550849         0.00344247604311664      0.6928228441715921       3979.4507674162555       0.04768478755084904      0.0034424760431166395    0.692822844171592
7.796990225500208         0.0034613656492723066    0.7164861582722946       3979.4519422308426       0.04699022550020959      0.0034613656492723066    0.7164861582722946
7.921210827387365         0.003480980254720235     0.7405480744106189       3979.4530564913953       0.04621082738736698      0.003480980254720235     0.7405480744106189
5.1704115361911205        0.0029230739520559866    0.30600408081637315      3979.3847266464754       0.04541153619112021      0.0029230739520559866    0.3060040808163732
5.2961480388776225        0.0030204556415912337    0.3213056263314932       3979.3796358770114       0.04614803887762272      0.0030204556415912337    0.3213056263314932
5.4218273550011755        0.003103119732979719     0.3370360349345316       3979.377050565291        0.046827355001175866     0.0031031197329797187    0.33703603493453155
5.547449484561779         0.003171066226221442     0.3531953066254882       3979.376970711315        0.047449484561779644     0.003171066226221442     0.3531953066254882
5.673014427559433         0.003224295121316404     0.36978344140436326      3979.3793963150843       0.04801442755943405      0.0032242951213164034    0.3697834414043632
5.798522183994138         0.003262806418264603     0.38680043927115654      3979.384327376597        0.04852218399413911      0.003262806418264603     0.38680043927115654
5.923972753865895         0.003286600117066041     0.40424630022586816      3979.391763895855        0.048972753865894794     0.003286600117066041     0.40424630022586816
9.158659742776317         0.003672517880141588     1.0021845352554566       3979.4811807153296       0.033659742776319626     0.003672517880141588     1.0021845352554566
9.281931833923956         0.003720578230687391     1.0303695509258137       3979.48940211412         0.031931833923957896     0.003720578230687391     1.0303695509258137
9.40512093098519          0.0037941922598113643    1.0589298247137433       3979.4988426329196       0.03012093098519041      0.0037941922598113643    1.0589298247137433
9.528227033960016         0.003893359967513509     1.0878653566192453       3979.509502271729        0.028227033960017165     0.003893359967513509     1.0878653566192453
9.651250142848436         0.004018081353793823     1.1171761466423198       3979.5213810305477       0.026250142848438168     0.004018081353793823     1.1171761466423198
9.774190257650451         0.004168356418652309     1.1468621947829665       3979.534478909375        0.024190257650453423     0.004168356418652309     1.1468621947829665
9.89704737836606          0.004344185162088964     1.1769235010411858       3979.5487959082125       0.022047378366062922     0.004344185162088964     1.1769235010411858
10.019821504995265        0.00454556758410379      1.2073600654169776       3979.564332027059        0.019821504995266664     0.00454556758410379      1.2073600654169776
10.156596086928705        0.004697189880517946     1.2418811692773353       3979.5572721423596       0.017707198039815256     0.004697189880517946     1.2418811692773353
10.29320117596279         0.004836717945353592     1.276984623901953        3979.5496890489367       0.015423398185012175     0.004836717945353592     1.276984623901953
10.429636772097526        0.004964151778610733     1.312670429290831        3979.5415827467914       0.012970105430857425     0.004964151778610733     1.312670429290831
10.56590287533291         0.005079491380289365     1.3489385854439695       3979.532953235923        0.010347319777351004     0.005079491380289365     1.3489385854439695
10.701999485668939        0.00518273675038949      1.385789092361368        3979.523800516332        0.007555041224492911     0.00518273675038949      1.385789092361368
10.83792660310562         0.005273887888911108     1.4232219500430265       3979.5141245880177       0.0045932697722831485    0.005273887888911108     1.4232219500430268
10.973684227642947        0.005352944795854217     1.4612371584889456       3979.5039254509807       0.0014620054207217152    0.005352944795854217     1.4612371584889456
11.109272359280922        0.005419907471218819     1.499834717699125        3979.4932031052213       -0.0018387518301913883   0.005419907471218819     1.499834717699125
11.244668134952013        0.005448127602461692     1.5390919249756616       3979.500841173991        -0.005331865047989791    0.005448127602461692     1.5390919249756616
11.379888900300056        0.005481662569294087     1.5789148797710297       3979.508678232117        -0.008999988588834234    0.005481662569294086     1.5789148797710297
11.514934655325053        0.005520512371716004     1.6193035820852295       3979.516714279599        -0.012843122452724719    0.005520512371716004     1.6193035820852295
11.649805400027006        0.005564677009727445     1.6602580319182607       3979.524949316437        -0.016861266639661247    0.005564677009727445     1.6602580319182607
11.784501134405913        0.005614156483328408     1.7017782292701233       3979.5333833426316       -0.02105442114964382     0.005614156483328408     1.7017782292701233
11.919021858461772        0.005668950792518895     1.7438641741408176       3979.542016358183        -0.025422585982672427    0.005668950792518895     1.7438641741408176
12.053367572194585        0.005729059937298904     1.786515866530343        3979.55084836309         -0.029965761138747084    0.005729059937298904     1.786515866530343
12.187538275604354        0.0057944839176684365    1.8297333064387002       3979.5598793573536       -0.03468394661786778     0.0057944839176684365    1.8297333064387002
12.321417189710921        0.00582538531174384      1.8735358361589447       3979.5638198969814       -0.03969392140018831     0.00582538531174384      1.8735358361589447
12.455108677175946        0.0058629623898015775    1.9178590765470138       3979.566319945136        -0.04489132282405186     0.0058629623898015775    1.9178590765470143
12.58861273799943         0.005907215151841648     1.9627030276029092       3979.567379501816        -0.05027615088945842     0.005907215151841648     1.9627030276029087
12.72192937218137         0.005958143597864053     2.0080676893266287       3979.5669985670233       -0.055848405596408       0.005958143597864053     2.0080676893266287
12.855058579721765        0.006015747727868792     2.053953061718174        3979.565177140757        -0.0616080869449006      0.006015747727868792     2.053953061718174
12.98800036062062         0.006080027541855865     2.1003591447775443       3979.561915223017        -0.06755519493493621     0.006080027541855865     2.1003591447775447
13.120754714877929        0.006150983039825271     2.14728593850474         3979.5572128138037       -0.07368972956651483     0.006150983039825272     2.14728593850474
13.253321642493697        0.006228614221777012     2.1947334428997607       3979.551069913117        -0.08001169083963648     0.006228614221777012     2.1947334428997607
13.385619413285793        0.006283327332205681     2.2427407509375312       3979.5512493561555       -0.08660280893642802     0.0062833273322056805    2.2427407509375312
13.517727564783176        0.006342389508045548     2.2912242266647698       3979.5504901722643       -0.09338354632793877     0.006342389508045548     2.2912242266647698
13.649646096985833        0.006405800749296612     2.3401838700814768       3979.548792361442        -0.10035390301416869     0.006405800749296612     2.3401838700814768
13.781375009893774        0.006473561055958874     2.389619681187652        3979.5461559236883       -0.10751387899511777     0.006473561055958874     2.389619681187652
13.912914303506996        0.006545670428032332     2.4395316599832952       3979.5425808590044       -0.11486347427078605     0.006545670428032332     2.439531659983295
14.044263977825496        0.006622128865516988     2.4899198064684063       3979.53806716739         -0.1224026888411735      0.006622128865516988     2.4899198064684063
14.175424032849278        0.0067029363684128415    2.5407841206429858       3979.532614848845        -0.13013152270628014     0.006702936368412841     2.5407841206429858
14.306394468578342        0.006788092936719892     2.5921246025070332       3979.526223903369        -0.13804997586610596     0.006788092936719892     2.5921246025070332
14.437086168916702        0.006853944004816437     2.6439882235387344       3979.5343731926937       -0.1462471644166341      0.006853944004816437     2.643988223538734
14.567589515803897        0.006923495680861919     2.696286670877065        3979.5415996766264       -0.15463270641832844     0.006923495680861919     2.696286670877065
14.697904509239923        0.006996747964856339     2.7490199445220274       3979.5479033551687       -0.16320660187118888     0.006996747964856339     2.7490199445220274
14.828031149224785        0.007073700856799696     2.8021880444736205       3979.553284228321        -0.17196885077521548     0.007073700856799696     2.8021880444736205
14.957969435758482        0.00715435435669199      2.8557909707318436       3979.5577422960823       -0.18091945313040822     0.00715435435669199      2.8557909707318436
15.087719368841011        0.007238708464533221     2.909828723296698        3979.561277558453        -0.1900584089367671      0.007238708464533222     2.909828723296698
15.217280948472373        0.00732676318032339      2.9643013021681837       3979.5638900154336       -0.19938571819429213     0.00732676318032339      2.9643013021681837
15.34665417465257         0.007418518504062496     3.019208707346299        3979.565579667023        -0.2089013809029833      0.007418518504062496     3.019208707346299
15.475751313339451        0.007491534125788599     3.074594424229904        3979.57886980443         -0.21869313110499475     0.007491534125788599     3.074594424229904
15.604663840362647        0.007568176800053152     3.130375670722219        3979.5910539272218       -0.22866949297068512     0.007568176800053152     3.130375670722219
15.733391755722169        0.007648446526856152     3.186552446823245        3979.6021320354002       -0.23883046650005435     0.007648446526856154     3.186552446823245
15.861935059418009        0.007732343306197604     3.243124752532982        3979.6121041289634       -0.24917605169310247     0.007732343306197604     3.243124752532982
15.990293751450173        0.007819867138077504     3.3000925878514304       3979.620970207913        -0.25970624854982954     0.007819867138077505     3.30009258785143
16.118467831818656        0.007911018022495851     3.357455952778589        3979.6287302722485       -0.27042105707023545     0.007911018022495851     3.357455952778589
16.24645730052346         0.008005795959452649     3.415214847314459        3979.63538432197         -0.2813204772543203      0.008005795959452649     3.415214847314459
16.374262157564587        0.008104200948947897     3.4733692714590396       3979.640932357077        -0.2924045091020841      0.008104200948947897     3.4733692714590396
16.501797970729598        0.00818159173676924      3.5319595822653485       3979.6387798563433       -0.3037575848259621      0.00818159173676924      3.5319595822653485
16.629154986832575        0.008260987378174534     3.59090732485366         3979.636296585098        -0.3152894576118706      0.008260987378174534     3.59090732485366
16.756333205873528        0.008342387873163786     3.6502124992239744       3979.633482543341        -0.32700012745980944     0.008342387873163786     3.650212499223974
16.883332627852447        0.00842579322173699      3.709875105376292        3979.6303377310733       -0.3388895943697787      0.00842579322173699      3.709875105376292
17.010153252769335        0.00851120342389415      3.7698951433106127       3979.626862148294        -0.35095785834177834     0.00851120342389415      3.7698951433106127
17.136795080624193        0.008598618479635266     3.8302726130269362       3979.6230557950034       -0.3632049193758083      0.008598618479635266     3.8302726130269362
17.263258111417024        0.008688038388960337     3.891007514525263        3979.6189186712013       -0.3756307774718687      0.008688038388960337     3.891007514525263
17.38954234514782         0.00877946315186936      3.952099847805593        3979.6144507768877       -0.38823543262995946     0.00877946315186936      3.952099847805593
17.515571026842906        0.00888297472509557      4.013569089472151        3979.6131988389216       -0.4010956398237602      0.008882974725095572     4.013569089472151
17.64142456419096         0.008982547692792423     4.075359959205456        3979.6108572666776       -0.41413099136459175     0.008982547692792423     4.075359959205456
17.767102957191987        0.009078182054959914     4.137472457005508        3979.6074260601536       -0.42734148725245413     0.009078182054959914     4.137472457005508
17.892606205845986        0.009169877811598044     4.199906582872306        3979.6029052193517       -0.4407271274873473      0.009169877811598044     4.199906582872306
18.017934310152953        0.009257634962706814     4.262662336805852        3979.5972947442706       -0.4542879120692713      0.009257634962706814     4.262662336805852
18.143087270112886        0.009341453508286223     4.325739718806145        3979.590594634911        -0.46802384099822625     0.009341453508286225     4.325739718806145
18.268065085725787        0.009421333448336273     4.389138728873185        3979.5828048912726       -0.481934914274212       0.009421333448336273     4.389138728873185
18.39286775699166         0.009497274782856963     4.452859367006972        3979.573925513356        -0.49602113189722863     0.009497274782856963     4.452859367006972
18.5174485603306          0.00955077265669051      4.516937716285471        3979.585727157441        -0.5103292174471772      0.009550772656690508     4.516937716285471
18.641867905036655        0.009611570461507976     4.581296888207695        3979.597136820758        -0.5247987616300124      0.009611570461507976     4.581296888207695
18.766125791109825        0.009679668197309362     4.645936882773643        3979.608154503308        -0.5394297644457342      0.009679668197309362     4.645936882773643
18.890222218550104        0.009755065864094666     4.710857699983315        3979.61878020509         -0.5542222258943427      0.009755065864094666     4.710857699983315
19.014157187357497        0.00983776346186389      4.77605933983671         3979.629013926105        -0.5691761459758378      0.009837763461863889     4.776059339836711
19.137930697532003        0.009927760990617034     4.841541802333829        3979.638855666352        -0.5842915246902196      0.009927760990617034     4.84154180233383
19.261542749073627        0.010025058450354096     4.907305087474673        3979.648305425832        -0.599568362037488       0.010025058450354096     4.907305087474673
19.38499334198236         0.010129655841075077     4.973349195259241        3979.6573632045443       -0.6150066580176431      0.010129655841075077     4.973349195259241
19.508257415528576        0.010231453051472982     5.039711111024256        3979.6533070653263       -0.630631473360313       0.010231453051472982     5.039711111024255
19.631367953532095        0.010330884177514313     5.10632187681501         3979.649958624042        -0.6464098242456845      0.010330884177514313     5.10632187681501
19.75432495599291         0.010427949219199062     5.173181492631503        3979.6473178806896       -0.6623417106737577      0.010427949219199062     5.173181492631503
19.877128422911024        0.010522648176527236     5.240289958473736        3979.6453848352703       -0.6784271326445325      0.010522648176527236     5.240289958473736
19.999778354286438        0.010614981049498831     5.307647274341706        3979.6441594877833       -0.694666090158009       0.010614981049498831     5.307647274341706
20.122274750119146        0.01070494783811385      5.375253440235416        3979.643641838229        -0.7110585832141871      0.010704947838113849     5.375253440235417
20.244617610409158        0.010792548542372288     5.4431084561548655       3979.6438318866076       -0.7276046118130668      0.010792548542372288     5.4431084561548655
20.366806935156465        0.010877783162274151     5.511212322100053        3979.6447296329184       -0.7443041759546482      0.010877783162274151     5.511212322100053
20.48879437223472         0.010934980703633124     5.579603890235539        3979.64776219633         -0.76120562776528        0.010934980703633124     5.579603890235539
20.610644003949915        0.010999794737072102     5.6482067876117545       3979.650832392684        -0.7782448849389764      0.010999794737072102     5.6482067876117545
20.732355830302044        0.01107222526259108      5.717021014228702        3979.653940221981        -0.7954219474757371      0.01107222526259108      5.717021014228703
20.853929851291102        0.011152272280190063     5.786046570086381        3979.657085684219        -0.8127368153755625      0.011152272280190063     5.786046570086381
20.975366066917104        0.01123993578986905      5.855283455184789        3979.6602687793998       -0.8301894886384523      0.01123993578986905      5.85528345518479
21.09666447718004         0.011335215791628042     5.92473166952393         3979.663489507523        -0.8477799672644069      0.011335215791628042     5.92473166952393
21.21782508207991         0.011438112285467032     5.9943912131038015       3979.6667478685886       -0.8655082512534258      0.011438112285467034     5.994391213103801
21.338847881616715        0.011548625271386032     6.064262085924404        3979.6700438625962       -0.8833743406055093      0.011548625271386032     6.064262085924404
21.45972114884598         0.011602276578321856     6.1343850715595005       3979.6784732707692       -0.9013899622651353      0.011602276578321856     6.1343850715595005
21.58047454329738         0.011664456599329681     6.204694819167851        3979.6872344007256       -0.9195254567026176      0.011664456599329681     6.204694819167851
21.70110806497093         0.011735165334409504     6.275191328749456        3979.696327252467        -0.9377808239179557      0.011735165334409504     6.275191328749456
21.821621713866627        0.011814402783561327     6.345874600304315        3979.705751825993        -0.95615606391115        0.011814402783561327     6.345874600304315
21.942015489984467        0.011902168946785148     6.416744633832428        3979.715508121303        -0.9746511766822004      0.011902168946785148     6.416744633832427