% Model:              16-12-8--150%--10-10-10.mph
% Version:            COMSOL 6.1.0.252
% Date:               Sep 6 2024, 16:35
% Dimension:          3
% Nodes:              217
% Expressions:        4
% Description:        线
% x                       y                        z                        磁标势                      u                        v                        w
2.2276071864058347        6.061700108403205E-4     0.011876356875809181     1591.2626817219546       0.0053849641836130665    6.061700108403205E-4     0.011876356875809181
2.3668471569644693        6.081514729118934E-4     0.013501796080637797     1591.300183601788        0.005736045853358626     6.081514729118934E-4     0.013501796080637797
2.506084276814276         6.105061440225789E-4     0.015227520509933997     1591.335013796532        0.006084276814276602     6.105061440225789E-4     0.015227520509933997
2.6453185459552553        6.13234024172377E-4      0.017053530163697785     1591.3671723061861       0.006429657066366994     6.13234024172377E-4      0.017053530163697785
2.784549964387407         6.163351133612879E-4     0.018979825041929157     1591.3966591307512       0.006772186609629802     6.163351133612879E-4     0.018979825041929157
2.923778532110731         6.198094115893114E-4     0.021006405144628114     1591.4234742702267       0.007111865444065027     6.198094115893114E-4     0.021006405144628114
3.063004249125228         6.236569188564475E-4     0.02313327047179466      1591.4476177246129       0.007448693569672667     6.236569188564475E-4     0.02313327047179466
3.202227115430897         6.278776351626964E-4     0.025360421023428788     1591.4690894939095       0.007782670986452724     6.278776351626963E-4     0.025360421023428788
3.3414471310277385        6.324715605080578E-4     0.027687856799530505     1591.4878895781167       0.008113797694405199     6.324715605080578E-4     0.027687856799530505
8.906746327047989         0.0010788584250468062    0.19668147147742812      1591.7473029496184       0.017857438159101208     0.0010788584250468062    0.19668147147742812
9.045782431432885         0.0010956214850976333    0.2026491530175495       1591.7495109126676       0.018004653655106652     0.0010956214850976333    0.2026491530175495
9.184814811430044         0.0011154701770076554    0.20869685946856226      1591.7517212432165       0.018148144763376717     0.0011154701770076554    0.20869685946856226
9.323843467039469         0.0011384045007768718    0.21482459083046646      1591.7539339412654       0.018287911483911398     0.0011384045007768716    0.21482459083046643
9.462868398261156         0.0011644244564052823    0.22103234710326203      1591.756149006814        0.018423953816710702     0.0011644244564052823    0.22103234710326203
9.601889605095108         0.0011935300438928875    0.22732012828694906      1591.7583664398626       0.01855627176177463      0.0011935300438928875    0.22732012828694903
9.740907087541327         0.0012257212632396876    0.23368793438152743      1591.7605862404112       0.01868486531910317      0.0012257212632396876    0.23368793438152743
9.879920845599807         0.0012609981144456816    0.24013576538699727      1591.7628084084597       0.018809734488696335     0.0012609981144456818    0.24013576538699727
10.018930879270554        0.0012993605975108707    0.24666362130335848      1591.765032944008        0.018930879270554115     0.0012993605975108707    0.24666362130335848
3.480660197574203         6.391518073276708E-4     0.03012201371438047      1591.50041219285         0.008437975351981115     6.391518073276709E-4     0.03012201371438047
3.6198697702672913        6.456933022408293E-4     0.03265230938684625      1591.511930624826        0.008758659156179857     6.456933022408293E-4     0.03265230938684625
3.759075849107001         6.520960452475335E-4     0.035278743816927825     1591.5224448740435       0.009075849107001424     6.520960452475334E-4     0.03527874381692782
3.8982784340933345        6.583600363477828E-4     0.03800131700462522      1591.5319549405033       0.009389545204445814     6.583600363477828E-4     0.03800131700462522
4.037477525226291         6.644852755415778E-4     0.04082002894993842      1591.540460824205        0.00969974744851303      6.644852755415778E-4     0.04082002894993842
4.1766731225058695        6.704717628289182E-4     0.04373487965286743      1591.5479625251487       0.010006455839203069     6.704717628289182E-4     0.04373487965286743
4.315865225932071         6.763194982098039E-4     0.04674586911341225      1591.5544600433343       0.010309670376515935     6.763194982098039E-4     0.04674586911341225
4.455053835504896         6.820284816842352E-4     0.04985299733157288      1591.5599533787622       0.010609391060451626     6.820284816842352E-4     0.04985299733157288
4.59423558495773          6.897888206732542E-4     0.053062463305617764     1591.5740685307408       0.010902251624396326     6.897888206732542E-4     0.053062463305617764
4.733413467974025         6.97702924649466E-4      0.05636361289054913      1591.5874287111894       0.011191245751803953     6.97702924649466E-4      0.05636361289054913
4.872587484553786         7.057707936128704E-4     0.05975644608636694      1591.6000339201087       0.011476373442674506     7.057707936128704E-4     0.05975644608636695
5.011757634697008         7.139924275634678E-4     0.06324096289307124      1591.611884157498        0.011757634697007985     7.139924275634678E-4     0.06324096289307124
5.150923918403693         7.223678265012581E-4     0.066817163310662        1591.6229794233577       0.01203502951480439      7.223678265012581E-4     0.066817163310662
5.290086335673841         7.308969904262411E-4     0.07048504733913923      1591.6333197176875       0.012308557896063721     7.308969904262411E-4     0.07048504733913923
5.429244886507452         7.39579919338417E-4      0.07424461497850293      1591.642905040488        0.012578219840785975     7.39579919338417E-4      0.07424461497850293
5.568399570904527         7.484166132377855E-4     0.07809586622875309      1591.6517353917584       0.012844015348971158     7.484166132377855E-4     0.07809586622875309
7.794262990000222         9.520782425911056E-4     0.1517741075908197       1591.6873577359645       0.016485212222442064     9.520782425911056E-4     0.1517741075908197
7.933339496944017         9.662357154476455E-4     0.15710176149812         1591.6970075285483       0.01667283027734785      9.662357154476455E-4     0.15710176149812002
8.072411406798432         9.80876059718592E-4      0.16251106299928483      1591.706041138024        0.016855851242875523     9.80876059718592E-4      0.16251106299928483
8.211478719563472         9.959992754039449E-4     0.16800201209431412      1591.7144585643923       0.017034275119025083     9.959992754039449E-4     0.16800201209431415
8.35054143523913          0.0010116053625037042    0.17357460878320793      1591.7222598076528       0.01720810190579653      0.0010116053625037042    0.17357460878320793
8.48959955382541          0.00102769432101787      0.17922885306596625      1591.7294448678056       0.017377331603189865     0.00102769432101787      0.17922885306596623
8.628653075322315         0.001044266150946442     0.18496474494258902      1591.7360137448509       0.017541964211205095     0.0010442661509464423    0.18496474494258902
8.76770199972984          0.001061320852289421     0.19078228441307632      1591.7419664387885       0.017701999729842207     0.001061320852289421     0.19078228441307632
5.707548670914302         7.587945709212644E-4     0.08204613858704413      1591.6555887707586       0.013104226469857781     7.587945709212645E-4     0.08204613858704413
5.846693439174938         7.695522290673005E-4     0.08608400384682409      1591.658715303277        0.01336010584160534      7.695522290673005E-4     0.08608400384682409
5.985833875686436         7.806895876758934E-4     0.09020946200809296      1591.6611149893138       0.013611653464213834     7.806895876758934E-4     0.09020946200809296
6.124969980448795         7.922066467470433E-4     0.09442251307085076      1591.662787828869        0.013858869337683264     7.922066467470433E-4     0.09442251307085076
6.264101753462015         8.041034062807505E-4     0.09872315703509746      1591.663733821943        0.01410175346201363      8.041034062807505E-4     0.09872315703509746
6.403229194726094         8.163798662770146E-4     0.1031113939008331       1591.6639529685349       0.01434030583720493      8.163798662770146E-4     0.1031113939008331
6.542352304241036         8.29036026735836E-4      0.10758722366805765      1591.6634452686458       0.014574526463257166     8.290360267358359E-4     0.10758722366805765
6.681471082006839         8.420718876572142E-4     0.11215064633677112      1591.6622107222747       0.014804415340170338     8.420718876572142E-4     0.11215064633677112
6.820583765079148         8.510156974841165E-4     0.11680850704935382      1591.6683623171355       0.01502820952359114      8.510156974841167E-4     0.11680850704935382
6.959692535416276         8.613329314652571E-4     0.12155067403170038      1591.6736544210964       0.015248090971829987     8.613329314652571E-4     0.12155067403170038
7.098797393018221         8.73023589600636E-4      0.12637714728381072      1591.6780870341572       0.015464059684886889     8.73023589600636E-4      0.12637714728381072
7.237898337884985         8.860876718902533E-4     0.13128792680568488      1591.6816601563185       0.01567611566276183      8.860876718902533E-4     0.13128792680568488
7.376995370016567         9.005251783341089E-4     0.13628301259732284      1591.6843737875797       0.01588425890545482      9.005251783341089E-4     0.13628301259732287
7.516088489412968         9.163361089322027E-4     0.14136240465872466      1591.6862279279412       0.016088489412965853     9.163361089322028E-4     0.14136240465872466
7.655177696074186         9.33520463684535E-4      0.14652610298989027      1591.6872225774027       0.016288807185294938     9.335204636845351E-4     0.14652610298989024
0                         0                        0                        1589.2285534179798       0                        0                        0
0.1391796471816214        1.6269189010336755E-4    2.861461141774012E-7     1589.4908844162833       2.907582927324638E-4     1.6269189010336755E-4    2.861461141774012E-7
0.2783652813257935        3.0102853393687394E-4    9.629516505272131E-5     1589.7343802627418       5.875035480156848E-4     3.0102853393687394E-4    9.629516505272131E-5
0.41755690243251653       4.150099315005191E-4     2.880270568156316E-4     1589.9590409573557       8.902357658496623E-4     4.150099315005191E-4     2.880270568156316E-4
0.5567545105017901        5.04636082794303E-4      5.754818214029084E-4     1590.1648665001248       0.0011989549462343967    5.04636082794303E-4      5.754818214029084E-4
0.6959581055336146        5.699069878182259E-4     9.586594588145517E-4     1590.3518568910492       0.0015136610891698882    5.699069878182259E-4     9.586594588145517E-4
0.8351676875279898        6.108226465722875E-4     0.0014375599690505615    1590.5200121301289       0.0018343541946561365    6.108226465722875E-4     0.0014375599690505615
0.9743832564849157        6.273830590564879E-4     0.0020121833521109375    1590.6693322173637       0.0021610342626931416    6.273830590564879E-4     0.0020121833521109375
1.1136048124043925        6.195882252708271E-4     0.00268252960799568      1590.7998171527538       0.0024937012932809035    6.195882252708271E-4     0.00268252960799568
1.2528628392753292        6.139111297942237E-4     0.0034640432588240377    1590.8801249114397       0.0028628392753289496    6.139111297942237E-4     0.0034640432588240373
1.3921186575403355        6.093768396527033E-4     0.004350618268980489     1590.9540184736868       0.00322976865144656      6.093768396527033E-4     0.004350618268980489
1.5313722671994114        6.059853548462656E-4     0.0053422546384650355    1591.0214978394954       0.0035944894216337338    6.059853548462656E-4     0.0053422546384650355
1.670623668252557         6.03736675374911E-4      0.006438952367277676     1591.0825630088648       0.0039570015858904715    6.03736675374911E-4      0.006438952367277676
1.809872860699772         6.026308012386391E-4     0.007640711455418411     1591.1372139817954       0.004317305144216774     6.026308012386391E-4     0.007640711455418411
1.9491198445410567        6.0266773243745E-4       0.008947531902887239     1591.1854507582873       0.004675400096612641     6.0266773243745E-4       0.00894753190288724
2.088364619776411         6.038474689713438E-4     0.010359413709684163     1591.2272733383404       0.005031286443078072     6.038474689713438E-4     0.010359413709684165
11.131265676741126        0.001549075918786539     0.3021243679903499       1591.7751014314329       0.020154565630012448     0.001549075918786539     0.3021243679903499
11.270286903237528        0.0015762173451893404    0.3094873194514459       1591.7781529600004       0.020286903237525022     0.0015762173451893404    0.3094873194514459
11.409300504089417        0.0016034522474542483    0.31693892630266285      1591.7810101837308       0.020411615200526555     0.0016034522474542483    0.31693892630266285
11.548306479296796        0.0016307806255812618    0.3244791885440006       1591.7836731026237       0.020528701519017038     0.0016307806255812618    0.3244791885440006
11.687304828859663        0.0016582024795703816    0.3321081061754593       1591.786141716679        0.020638162192996485     0.0016582024795703816    0.3321081061754593
11.826295552778019        0.0016857178094216076    0.3398256791970389       1591.7884160258968       0.020739997222464886     0.0016857178094216079    0.3398256791970389
11.965278651051865        0.0017133266151349398    0.3476319076087393       1591.7904960302772       0.020834206607422245     0.0017133266151349398    0.3476319076087393
12.1042541236812          0.0017410288967103782    0.35552679141056065      1591.79238172982         0.020920790347868562     0.0017410288967103782    0.35552679141056065
12.243221970666024        0.001768824654147923     0.3635103306025029       1591.7940731245253       0.020999748443803833     0.001768824654147923     0.3635103306025029
12.382182152131232        0.001798671727619892     0.371594050036656        1591.7994032309998       0.021071041020121847     0.001798671727619892     0.371594050036656
12.521135314394204        0.0018285364647820852    0.3797610169599003       1591.8037935173465       0.021135314394206395     0.0018285364647820852    0.3797610169599003
12.660081457454945        0.0018584188656345026    0.3880112313722356       1591.8072439835653       0.021192568566057474     0.0018584188656345026    0.3880112313722356
12.799020581313451        0.0018883189301771442    0.39634469327366195      1591.8097546296563       0.02124280353567508      0.0018883189301771442    0.39634469327366195
12.937952685969725        0.00191823665841001      0.4047614026641795       1591.8113254556195       0.021286019303059213     0.0019182366584100095    0.4047614026641795
13.076877771423765        0.0019481720503330994    0.413261359543788        1591.8119564614544       0.021322215868209878     0.0019481720503330994    0.41326135954378806
13.215795837675572        0.0019781251059464134    0.42184456391248765      1591.8116476471619       0.021351393231127072     0.001978125105946413     0.4218445639124877
13.354706884725143        0.002008095825249951     0.43051101577027845      1591.8103990127413       0.021373551391810797     0.002008095825249951     0.43051101577027845
10.157991832746692        0.0013395946665502917    0.25326552122794527      1591.7632040232154       0.019102943857803863     0.0013395946665502917    0.25326552122794527
10.297047327996456        0.0013772516916240086    0.2599619049843283       1591.7622572400574       0.019269550218677187     0.0013772516916240086    0.2599619049843283
10.436097365019842        0.0014123316727320226    0.26675277257250773      1591.7621925945336       0.0194306983531741       0.0014123316727320228    0.26675277257250773
10.575141943816853        0.001444834609874333     0.2736381239924835       1591.7630100866445       0.0195863882612946       0.001444834609874333     0.2736381239924835
10.714181064387486        0.0014747605030509398    0.2806179592442556       1591.76470971639         0.019736619943038686     0.00147476050305094      0.2806179592442556
10.853214726731743        0.001502109352261843     0.287692278327824        1591.7672914837697       0.019881393398406354     0.0015021093522618431    0.287692278327824
10.992242930849622        0.0015268811575070427    0.2948610812431888       1591.770755388784        0.020020708627397608     0.001526881157507043     0.29486108124318877
13.49360505717154         0.0020401078587823774    0.43927023839338564      1591.815050765654        0.021382834949317597     0.0020401078587823774    0.43927023839338564
13.632495605369492        0.0020722015864341743    0.4481071114980705       1591.8195402788806       0.021384494258382403     0.0020722015864341743    0.4481071114980705
13.771378529319003        0.0021043770082053424    0.45702163508433313      1591.823867552421        0.02137852931900521      0.002104377008205342     0.45702163508433313
13.910253829020075        0.002136634124095881     0.4660138091521736       1591.8280325862752       0.02136494013118602      0.002136634124095881     0.4660138091521736
14.049121504472701        0.0021689729341057905    0.47508363370159173      1591.8320353804434       0.021343726694924833     0.0021689729341057905    0.47508363370159173
14.187981555676888        0.0022013934382350705    0.4842311087325877       1591.835875934925        0.02131488901022165      0.0022013934382350705    0.4842311087325877
14.326833982632632        0.0022338956364837217    0.49345623424516133      1591.8395542497205       0.02127842707707647      0.0022338956364837217    0.49345623424516133
14.465678785339934        0.0022664795288517433    0.5027590102393127       1591.84307032483         0.02123434089548929      0.0022664795288517433    0.5027590102393127
14.604514251170015        0.00229283071901348      0.5121472404184255       1591.8414584993645       0.021180917836679834     0.00229283071901348      0.5121472404184255
14.743343454666999        0.0023205707100749573    0.5216084955088526       1591.8399863106952       0.021121232444778582     0.0023205707100749573    0.5216084955088526
14.882166395830899        0.0023496995020361776    0.5311427755105939       1591.8386537588221       0.02105528471978552      0.0023496995020361776    0.5311427755105939
15.0209830746617          0.002380217094897139     0.5407500804236495       1591.8374608437457       0.02098307466170066      0.002380217094897139     0.5407500804236495
15.15979349115941         0.002412123488657843     0.5504304102480193       1591.8364075654656       0.020904602270523997     0.002412123488657843     0.5504304102480194
15.298597645324032        0.0024454186833182882    0.5601837649837036       1591.835493923982        0.020819867546255533     0.0024454186833182882    0.5601837649837036
15.437395537155563        0.0024801026788784757    0.5700101446307021       1591.8347199192947       0.02072887048889526      0.0024801026788784757    0.5700101446307021
15.576187166653998        0.0025161754753384048    0.5799095491890148       1591.8340855514039       0.020631611098443192     0.0025161754753384048    0.5799095491890148
18.90492038840683         0.0033473282469599825    0.8371785399907344       1591.896425798276        0.016031499517941375     0.0033473282469599825    0.8371785399907344
19.043530610983407        0.0033852073063017777    0.848644264308853        1591.8955854991998       0.015752833205629393     0.0033852073063017777    0.848644264308853
19.182133957545435        0.003425640731430272     0.8601643153603316       1591.894861332034        0.01546729087876971      0.003425640731430272     0.8601643153603316
19.320730428092915        0.003468628522345465     0.8717386931451703       1591.8942532967783       0.015174872537362319     0.003468628522345465     0.8717386931451703
19.45932002262585         0.0035141706790473575    0.8833673976633691       1591.8937613934324       0.014875578181407225     0.0035141706790473575    0.8833673976633691
19.59790274114424         0.0035622672015359486    0.8950504289149281       1591.893385621997        0.014569407810904428     0.003562267201535949     0.8950504289149281
19.736478583648076        0.0036129180898112397    0.9067877868998472       1591.8931259824715       0.014256361425853924     0.0036129180898112397    0.9067877868998473
19.875047550137367        0.00366612334387323      0.9185794716181265       1591.8929824748564       0.013936439026255715     0.00366612334387323      0.9185794716181265
20.01360964061211         0.0037218829637219192    0.9304254830697658       1591.892955099151        0.013609640612109803     0.0037218829637219192    0.9304254830697658
17.79579441575671         0.003063185095776395     0.7474495996922268       1591.883283422733        0.01801663797893676      0.003063185095776395     0.7474495996922268
17.93445898050337         0.00309638519442044      0.7584582841875223       1591.8843680310729       0.01779231383670513      0.0030963851944204395    0.7584582841875223
18.073116740059916        0.003130247520279886     0.7695262352662515       1591.8856121218707       0.017561184504361272     0.0031302475202798856    0.7695262352662515
18.211767694426353        0.003164772073354732     0.7806534529284144       1591.8870156951266       0.017323249981905188     0.003164772073354732     0.7806534529284144
18.35041184360267         0.0031999588536449804    0.791839937174011        1591.8885787508405       0.01707851026933688      0.0031999588536449804    0.791839937174011
18.489049187588883        0.0032358078611506294    0.8030856880030413       1591.8903012890123       0.016826965366656343     0.00323580786115063      0.8030856880030413
18.627679726384976        0.0032723190958716796    0.8143907054155053       1591.8921833096422       0.01656861527386358      0.0032723190958716796    0.8143907054155053
18.76630345999096         0.0033094925578081307    0.825754989411403        1591.89422481273         0.01630345999095859      0.0033094925578081302    0.825754989411403
15.71496384122769         0.002542678078984147     0.5898802763868846       1591.8357081730956       0.020519396783250612     0.002542678078984147     0.5898802763868847
15.853734203880435        0.002570958720794285     0.5999191622392565       1591.837065998425        0.02040087054710119      0.002570958720794285     0.5999191622392565
15.992498254612213        0.0026010174007688185    0.6100262067461301       1591.838159027392        0.020276032389994914     0.002601017400768818     0.61002620674613
16.131255993423043        0.0026328541189077474    0.6202014099075053       1591.8389872599964       0.020144882311931796     0.0026328541189077474    0.6202014099075053
16.27000742031291         0.002666468875211073     0.6304447717233825       1591.8395506962383       0.020007420312911837     0.0026664688752110724    0.6304447717233825
16.408752535281824        0.0027018616696787927    0.6407562921937615       1591.8398493361183       0.019863646392935027     0.0027018616696787927    0.6407562921937615
16.54749133832978         0.0027390325023109083    0.6511359713186424       1591.8398831796353       0.01971356055200137      0.0027390325023109088    0.6511359713186424
16.686223829456782        0.0027779813731074205    0.661583809098025        1591.8396522267903       0.019557162790110872     0.0027779813731074205    0.661583809098025
16.82494200481053         0.0028069914853227937    0.6720967706543574       1591.8435788072493       0.01938644925496986      0.0028069914853227937    0.6720967706543574
16.96365393671677         0.0028378988412862387    0.6826726642872448       1591.8479417645754       0.019209492272327208     0.0028378988412862387    0.6826726642872448
17.102359625175517        0.002870703440997753     0.6933114899966873       1591.852741098768        0.019026291842182914     0.0028707034409977536    0.6933114899966873
17.241059070186758        0.00290540528445734      0.704013247782685        1591.8579768098275       0.01883684796453697      0.00290540528445734      0.704013247782685
17.379752271750498        0.002942004371664997     0.7147779376452379       1591.8636488977538       0.018641160639389386     0.002942004371664997     0.7147779376452379
17.518439229866736        0.002980500702620726     0.7256055595843458       1591.8697573625468       0.018439229866740157     0.0029805007026207256    0.7256055595843457
17.657119944535477        0.003020894277324525     0.7364961136000088       1591.8763022042065       0.01823105564658928      0.0030208942773245246    0.7364961136000088
20.15222798293434         0.003781487610398971     0.9423391845399609       1591.8970157863255       0.01333909404545034      0.003781487610398971     0.9423391845399608
20.290839975917226        0.0038384370795910942    0.9543184676201217       1591.9019566193272       0.01306219813944836      0.0038384370795910942    0.9543184676201217
20.42944561956077         0.0038927313712982872    0.9663633323102488       1591.9077775981557       0.012778952894103865     0.0038927313712982872    0.9663633323102487
20.568044913864973        0.003944370485520552     0.9784737786103417       1591.9144787228115       0.012489358309416852     0.003944370485520552     0.9784737786103417
20.70663785882983         0.003993354422257888     0.9906498065204005       1591.9220599932944       0.012193414385387324     0.003993354422257888     0.9906498065204005
20.84522445445535         0.004039683181510293     1.0028914160404254       1591.9305214096044       0.01189112112201528      0.004039683181510293     1.0028914160404254
20.983804700741523        0.004083356763277771     1.015198607170416        1591.9398629717414       0.011582478519300719     0.0040833567632777715    1.0151986071704158
21.122378597688353        0.004124375167560319     1.0275713799103725       1591.9500846797057       0.011267486577243644     0.004124375167560319     1.0275713799103725
26.65820148998759         0.005908904795059243     1.5651667883666527       1592.1958871110269       -0.00846517667907289     0.005908904795059243     1.5651667883666527
26.796441770884044        0.005957302557317135     1.5793740449115687       1592.2111777389998       -0.009113784671504553    0.0059573025573171345    1.5793740449115687
26.934677628186815        0.006005446626316534     1.593601447353035        1592.2280534251229       -0.009766816257621689    0.006005446626316533     1.593601447353035
27.0729090618959          0.006053337002057437     1.6078489956910518       1592.2465141693956       -0.010424271437424295    0.006053337002057438     1.6078489956910518
27.211136072011303        0.00610097368453985      1.622116689925619        1592.2665599718187       -0.011086150210912376    0.00610097368453985      1.622116689925619
27.34935865853302         0.0061483566737637685    1.6364045300567365       1592.2881908323916       -0.011752452578085926    0.0061483566737637685    1.6364045300567367
27.487576821461044        0.006195485969729196     1.6507125160844045       1592.3114067511142       -0.01242317853894495     0.006195485969729194     1.6507125160844045
27.625790560795394        0.006242361572436126     1.6650406480086228       1592.3362077279871       -0.013098328093489443    0.006242361572436126     1.6650406480086228
27.763999876536055        0.006288983481884567     1.6793889258293915       1592.3625937630097       -0.01377790124171941     0.006288983481884567     1.6793889258293915
21.26093014000948         0.004164165127167958     1.040028384540717        1591.950631345804        0.01093014000948362      0.004164165127167957     1.040028384540717
21.3994736294046          0.004204351294915387     1.052543718721383        1591.9504289886486       0.01058474051570799      0.004204351294915387     1.052543718721383
21.53800906587369         0.004244933670802611     1.0651173824523712       1591.9494776082392       0.01023128809591675      0.00424493367080261      1.065117382452371
21.676536449416776        0.0042859122548296255    1.0777493757336805       1591.9477772045766       0.009869782750109905     0.0042859122548296255    1.0777493757336805
21.815055780033845        0.004327287046996434     1.090439698565312        1591.9453277776602       0.00950022447828745      0.004327287046996434     1.0904396985653118
21.953567057724893        0.004369058047303035     1.1031883509472649       1591.9421293274902       0.00912261328044939      0.004369058047303035     1.1031883509472649
22.09207028248993         0.004411225255749428     1.1159953328795398       1591.9381818540664       0.008736949156595718     0.004411225255749428     1.1159953328795398
22.23056545432895         0.0044537886723356145    1.1288606443621363       1591.9334853573891       0.00834323210672644      0.0044537886723356145    1.1288606443621363
24.445379617749357        0.005177901143918898     1.341817508921767        1592.0093599001227       9.351733049151542E-4     0.005177901143918898     1.341817508921767
24.58372997596155         0.005224477392073389     1.3555237529614654       1592.0179581489258       3.9664262822081885E-4    0.00522447739207339      1.3555237529614654
24.722074213635604        0.00527083253490219      1.3692652646766377       1592.0265634970324       -1.4800858661317458E-4   0.00527083253490219      1.3692652646766377