% Model:              16-12-8--150%--10-10-10.mph
% Version:            COMSOL 6.1.0.252
% Date:               Sep 6 2024, 16:35
% Dimension:          3
% Nodes:              217
% Expressions:        4
% Description:        线
% x                       y                        z                        磁标势                      u                        v                        w
2.232021111671806         0.0010627038170331158    0.021893060136990276     2387.167362743972        0.0097988894495843       0.0010627038170331158    0.021893060136990276
2.3715388928876897        0.0010593858444340805    0.02489001342488194      2387.2083376816136       0.01042778177657946      0.0010593858444340805    0.02489001342488194
2.5110492776178144        0.0010563681132611945    0.028071571021208296     2387.246281388549        0.011049277617814254     0.0010563681132611945    0.028071571021208296
2.650552265862177         0.0010536506235144583    0.03143773292596934      2387.281193864778        0.01166337697328868      0.0010536506235144583    0.03143773292596934
2.79004785762078          0.0010512333751938714    0.03498849913916506      2387.3130751102995       0.012270079843002745     0.0010512333751938714    0.03498849913916506
2.9295360528936225        0.0010491163682994336    0.03872386966079548      2387.3419251251144       0.012869386226956442     0.0010491163682994336    0.038723869660795475
3.069016851680705         0.0010472996028311457    0.04264384449086058      2387.3677439092226       0.013461296125149775     0.0010472996028311457    0.04264384449086058
3.208490253982027         0.001045783078789007     0.046748423629360374     2387.3905314626236       0.014045809537582743     0.001045783078789007     0.046748423629360374
3.3479562597975887        0.001044566796173018     0.051037607076294844     2387.410287785318        0.014622926464255344     0.001044566796173018     0.051037607076294844
8.917136986143838         0.0011695818895909684    0.36230738606145635      2387.6657890843817       0.028248097254948222     0.0011695818895909684    0.36230738606145635
9.056096329948856         0.0011759390856128315    0.3732930945598123       2387.6677538087747       0.02831855217107707      0.0011759390856128315    0.37329309455981236
9.195043332666664         0.0011876051098798045    0.3844257251931693       2387.6697211097216       0.028376665999996015     0.0011876051098798045    0.3844257251931693
9.33397799429726          0.0012045799623918876    0.3957052779615272       2387.671690987221        0.02842243874170504      0.0012045799623918874    0.3957052779615272
9.472900314840649         0.00122686364314908      0.40713175286488607      2387.673663441274        0.02845587039620415      0.00122686364314908      0.40713175286488607
9.611810294296827         0.0012544561521513821    0.4187051499032459       2387.67563847188         0.028476960963493354     0.0012544561521513821    0.41870514990324587
9.750707932665795         0.0012873574893987939    0.43042546907660667      2387.67761607904         0.028485710443572645     0.0012873574893987939    0.43042546907660667
9.889593229947554         0.0013255676548913156    0.4422927103849684       2387.6795962627525       0.02848211883644202      0.0013255676548913156    0.4422927103849684
10.0284661861421          0.001369086648628947     0.4543068738283311       2387.6815790230185       0.028466186142101488     0.001369086648628947     0.4543068738283311
3.487406295122652         0.0010467126312872798    0.05552462388121182      2387.4214571486036       0.015184072900430412     0.0010467126312872798    0.055524623881211835
3.6268469955931626        0.0010481886248323784    0.060188492298778255     2387.43150389521         0.015735884482051245     0.0010481886248323784    0.060188492298778255
3.766278361209118         0.0010489947768083138    0.06502921232899411      2387.440428025137        0.01627836120911785      0.0010489947768083136    0.06502921232899411
3.905700391970519         0.0010491310872150854    0.07004678397185943      2387.448229538385        0.01681150308163022      0.0010491310872150854    0.07004678397185943
4.0451130878773665        0.001048597556052694     0.07524120722737417      2387.4549084349537       0.017335310099588358     0.0010485975560526938    0.07524120722737417
4.184516448929658         0.0010473941833211392    0.08061248209553835      2387.4604647148435       0.01784978226299227      0.001047394183321139     0.08061248209553835
4.323910475127398         0.0010455209690204206    0.08616060857635198      2387.464898378054        0.018354919571841943     0.0010455209690204206    0.08616060857635198
4.463295166470582         0.001042977913150539     0.09188558666981506      2387.4682094245854       0.018850722026137388     0.001042977913150539     0.09188558666981506
4.602663492843926         0.0010440346963010126    0.09780054736016748      2387.4846978553505       0.019330159510593744     0.0010440346963010126    0.09780054736016748
4.742021078862685         0.0010449925492297815    0.10388405608900163      2387.5002468765565       0.019798856640462374     0.0010449925492297815    0.10388405608900163
4.881367924526853         0.001045851471936846     0.11013611285631753      2387.5148564882033       0.020256813415743286     0.001045851471936846     0.11013611285631753
5.020704029836436         0.0010466114644222062    0.11655671766211514      2387.5285266902915       0.020704029836436464     0.0010466114644222062    0.11655671766211514
5.16002939479143          0.0010472725266858617    0.12314587050639453      2387.5412574828206       0.02114050590254192      0.0010472725266858617    0.12314587050639453
5.299344019391837         0.001047834658727813     0.12990357138915562      2387.553048865791        0.021566241614059647     0.001047834658727813     0.12990357138915562
5.438647903637656         0.0010482978605480596    0.13682982031039842      2387.5639008392022       0.02198123697098965      0.0010482978605480598    0.13682982031039845
5.5779410475288875        0.001048662132146602     0.143924617270123        2387.5738134030544       0.02238549197333193      0.001048662132146602     0.143924617270123
7.804922849821885         0.001120889516820351     0.27962761473761866      2387.5893522519505       0.027145072044104757     0.001120889516820351     0.27962761473761866
7.943996514269556         0.0011252131701863525    0.28943810940029313      2387.6019818885165       0.0273298476028875       0.0011252131701863525    0.28943810940029313
8.083056779457964         0.001130040507332447     0.29939845456376907      2387.613732944365        0.027501223902405298     0.001130040507332447     0.29939845456376907
8.222103645387103         0.0011353715282586346    0.3095086502280465       2387.6246054194953       0.027659200942658148     0.0011353715282586346    0.30950865022804647
8.361137112056982         0.001141206232964915     0.31976869639312544      2387.6345993139084       0.027803778723646054     0.001141206232964915     0.31976869639312544
8.50015717946759          0.001147544621451289     0.33017859305900593      2387.6437146276035       0.027934957245369013     0.0011475446214512888    0.33017859305900593
8.639163847618939         0.0011543866937177556    0.34073834022568794      2387.651951360581        0.02805273650782703      0.0011543866937177556    0.3407383402256879
8.778157116511021         0.0011617324497643154    0.3514479378931714       2387.65930951284         0.028157116511020097     0.0011617324497643154    0.3514479378931714
5.717219803269186         0.0010515074887164633    0.15120301422959395      2387.5764908565266       0.022775358824741812     0.0010515074887164633    0.15120301422959395
5.856486424009253         0.0010546891206221149    0.15864233564569205      2387.5781997165755       0.02315309067591925      0.0010546891206221147    0.15864233564569202
5.995740909749088         0.0010582070278635563    0.16624258151841728      2387.5789399832015       0.023518687526864233     0.0010582070278635563    0.16624258151841728
6.1349832604886885        0.0010620612104407878    0.1740037518477697       2387.578711656404        0.023872149377576774     0.0010620612104407878    0.1740037518477697
6.2742134762280575        0.0010662516683538094    0.18192584663374928      2387.5775147361833       0.02421347622805686      0.0010662516683538094    0.18192584663374925
6.413431556967194         0.001070778401602621     0.19000886587635601      2387.575349222539        0.024542668078304502     0.001070778401602621     0.190008865876356
6.552637502706099         0.0010756414101872232    0.19825280957558988      2387.5722151154723       0.024859724928319695     0.001075641410187223     0.1982528095755899
6.69183131344477          0.0010808406941076147    0.20665767773145097      2387.568112414982        0.025164646778102442     0.0010808406941076147    0.20665767773145097
6.831008827966317         0.0010783776341604624    0.21523701755758992      2387.5749745141657       0.025453272410760022     0.0010783776341604624    0.21523701755758995
6.970174607495175         0.0010780486207236657    0.2239711866121952       2387.580634579189        0.0257301630507298       0.0010780486207236657    0.2239711866121952
7.109328652031345         0.0010798536537972242    0.2328601848952667       2387.585092610051        0.025995318698011787     0.0010798536537972245    0.2328601848952667
7.248470961574829         0.0010837927333811385    0.24190401240680454      2387.588348606753        0.026248739352605972     0.0010837927333811385    0.24190401240680454
7.387601536125626         0.0010898658594754084    0.2511026691468087       2387.5904025692935       0.026490425014512365     0.0010898658594754084    0.2511026691468087
7.526720375683732         0.0010980730320800337    0.2604561551152791       2387.591254497673        0.02672037568373096      0.0010980730320800335    0.26045615511527903
7.665827480249153         0.0011084142511950145    0.2699644703122157       2387.5909043918923       0.026938591360261756     0.0011084142511950145    0.2699644703122157
0                         0                        0                        2385.0717211139436       0                        0                        0
0.1394219452876681        2.9856206439752956E-4    6.450631322152062E-7     2385.3450245196996       5.330563987791522E-4     2.9856206439752956E-4    6.450631322152062E-7
0.27885449325744005       5.520080689689546E-4     1.7762837862164238E-4    2385.5986245931445       0.0010767154796621613    5.520080689689546E-4     1.7762837862164238E-4
0.41829764390931584       7.603380137142752E-4     5.309499464682817E-4     2385.8325213342787       0.0016309772426490279    7.603380137142751E-4     5.309499464682817E-4
0.5577513972432956        9.235518986334912E-4     0.0010606097666721328    2386.046714743102        0.0021958416877397515    9.235518986334912E-4     0.0010606097666721328
0.6972157532593791        0.0010416497237266027    0.001766607839233196     2386.2412048196143       0.0027713088149343324    0.0010416497237266027    0.001766607839233196
0.8366907119575664        0.0011146314889936095    0.0026489441641514714    2386.4159915638156       0.00335737862423277      0.0011146314889936095    0.0026489441641514714
0.9761762733378577        0.001142497194434512     0.0037076187414269582    2386.5710749757063       0.003954051115635065     0.001142497194434512     0.0037076187414269582
1.115672437400253         0.0011252468400493102    0.004942631571059657     2386.706455055286        0.004561326289141217     0.0011252468400493102    0.004942631571059657
1.2552353628657613        0.0011117171540534203    0.0063843124675587205    2386.7867876116097       0.005235362865760861     0.0011117171540534203    0.0063843124675587205
1.394792762279394         0.001099819413234349     0.00801945698526986      2386.860628997866        0.005903873390505002     0.001099819413234349     0.008019456985269858
1.5343446356411514        0.0010895536175920967    0.009848065124193074     2386.9279792140533       0.00656685786337364      0.0010895536175920967    0.009848065124193074
1.6738909829510333        0.001080919767126663     0.011870136884328364     2386.9888382601735       0.007224316284366777     0.001080919767126663     0.011870136884328364
1.8134318042090398        0.0010739178618380484    0.014085672265675728     2387.0432061362253       0.007876248653484411     0.0010739178618380482    0.014085672265675728
1.9529670994151707        0.001068547901726252     0.01649467126823517      2387.091082842209        0.008522654970726544     0.001068547901726252     0.01649467126823517
2.0924968685694263        0.0010648098867912744    0.019097133892006683     2387.1324683781245       0.009163535236093173     0.0010648098867912744    0.019097133892006683
11.139667046215903        0.0015997497626944518    0.5563970846400081       2387.687912192397        0.028555935104790528     0.0015997497626944518    0.5563970846400081
11.278495801064103        0.001619203398733845     0.5699487190623574       2387.6913524791407       0.028495801064101205     0.001619203398733845     0.5699487190623574
11.417302915609655        0.0016384907987277582    0.5836627710124891       2387.6945239537677       0.028414026720764988     0.001638490798727758     0.5836627710124891
11.556088389852558        0.0016576119626761903    0.5975392404904034       2387.697426616279        0.02831061207478186      0.0016576119626761903    0.5975392404904034
11.694852223792818        0.0016765668905791423    0.6115781274961001       2387.7000604666737       0.02818555712615183      0.0016765668905791423    0.6115781274961001
11.83359441743043         0.001695355582436614     0.6257794320295791       2387.7024255049523       0.028038861874874893     0.0016953555824366143    0.6257794320295791
11.972314970765392        0.0017139780382486056    0.6401431540908408       2387.7045217311147       0.02787052632095105      0.0017139780382486054    0.6401431540908408
12.111013883797712        0.0017324342580151164    0.6546692936798849       2387.7063491451613       0.027680550464380307     0.0017324342580151164    0.6546692936798849
12.249691156527382        0.0017507242417361469    0.6693578507967115       2387.707907747091        0.027468934305162656     0.0017507242417361469    0.6693578507967115
12.388345497320236        0.0017722397188626748    0.6842300859531308       2387.7149434573703       0.027234386209126292     0.0017722397188626746    0.6842300859531308
12.526979253299688        0.0017934514846436945    0.69925459855402         2387.7205891627236       0.026979253299688515     0.0017934514846436945    0.69925459855402
12.665592424465737        0.001814359539079207     0.7144313885993788       2387.7248448631526       0.026703535576849347     0.0018143595390792068    0.7144313885993788
12.804185010818385        0.001834963882169212     0.7297604560892076       2387.7277105586563       0.026407233040608772     0.001834963882169212     0.7297604560892076
12.942757012357633        0.0018552645139137092    0.745241801023506        2387.729186249235        0.026090345690966802     0.0018552645139137092    0.745241801023506
13.081308429083478        0.001875261434312699     0.7608754234022743       2387.729271934889        0.025752873527923426     0.001875261434312699     0.7608754234022743
13.219839260995924        0.0018949546433661808    0.7766613232255123       2387.727967615618        0.025394816551478648     0.0018949546433661808    0.7766613232255123
13.358349508094966        0.001914344141074155     0.7925995004932201       2387.725273291422        0.025016174761632474     0.001914344141074155     0.7925995004932201
10.167426942030517        0.0014157378620265103    0.46646146756810614      2387.6777862707568       0.028538053141625306     0.0014157378620265103    0.46646146756810614
10.30637036981059         0.0014572981256699665    0.4787893991969339       2387.6753033466193       0.028592592032809786     0.0014572981256699665    0.4787893991969339
10.445296469482324        0.0014937674395593156    0.4912906687148145       2387.6741302506052       0.028629802815654925     0.0014937674395593156    0.49129066871481447
10.58420524104572         0.0015251458036945574    0.5039652761217478       2387.674266982716        0.028649685490160726     0.0015251458036945574    0.5039652761217478
10.723096684500776        0.001551433218075692     0.5168132214177338       2387.6757135429502       0.028652240056327185     0.001551433218075692     0.5168132214177338
10.86197079984749         0.001572629682702719     0.5298345046027724       2387.6784699313084       0.028637466514154303     0.001572629682702719     0.5298345046027725
11.000827587085865        0.0015887351975756392    0.5430291256768639       2387.682536147791        0.028605364863642086     0.0015887351975756392    0.543029125676864
13.49682679644336         0.0019370835332352943    0.8087077775409728       2387.731303328093        0.02460457422113652      0.0019370835332352943    0.8087077775409728
13.635282362345883        0.00195962376157108      0.8249578548280594       2387.737094181183        0.02417125123477223      0.00195962376157108      0.8249578548280594
13.77371620580254         0.00198196482608151      0.8413497323544801       2387.742645850692        0.0237162058025396       0.00198196482608151      0.8413497323544801
13.912128326813328        0.002004106726766587     0.8578834101202345       2387.7479583366203       0.023239437924438645     0.002004106726766587     0.8578834101202345
14.050518725378248        0.0020260494636263095    0.8745588881253229       2387.753031638968        0.02274094760046935      0.0020260494636263095    0.8745588881253229
14.1888874014973          0.0020477930366606775    0.8913761663697451       2387.757865757734        0.02222073483063172      0.0020477930366606775    0.8913761663697451
14.327234355170484        0.0020693374458696915    0.9083352448535015       2387.7624606929203       0.021678799614925755     0.0020693374458696915    0.9083352448535015
14.465559586397799        0.002090682691253351     0.9254361235765917       2387.766816444525        0.021115141953351454     0.002090682691253351     0.9254361235765917
14.603858356977142        0.002100569830427972     0.9426936929918569       2387.7635600790886       0.020525023643804395     0.002100569830427972     0.9426936929918569
14.74213791091609         0.0021126797647831735    0.9600845823534621       2387.760516086567        0.01991568869387056      0.0021126797647831735    0.9600845823534621
14.880398248214663        0.0021270124943189536    0.9776087916614075       2387.757684466961        0.01928713710354995      0.0021270124943189536    0.9776087916614075
15.018639368872842        0.002143568019035314     0.9952663209156928       2387.7550652202704       0.018639368872842555     0.002143568019035314     0.9952663209156928
15.156861272890636        0.002162346338932254     1.013057170116318        2387.7526583464946       0.017972384001748384     0.002162346338932254     1.013057170116318
15.295063960268045        0.0021833474540097733    1.0309813392632836       2387.7504638456344       0.017286182490267435     0.0021833474540097733    1.0309813392632836
15.433247431005066        0.002206571364267873     1.0490388283565888       2387.748481717689        0.01658076433839971      0.002206571364267873     1.0490388283565888
15.5714116851017          0.002232018069706552     1.0672296373962342       2387.7467119626594       0.015856129546145206     0.002232018069706552     1.0672296373962342
18.880911548114724        0.002697387914818834     1.5396804488127342       2387.8172518765737       -0.00797734077416382     0.002697387914818834     1.5396804488127342
19.01855723255402         0.0027196184249101314    1.5607242254871279       2387.8150190329534       -0.009220545223757428    0.0027196184249101314    1.5607242254871279
19.15618334308567         0.0027462825494327255    1.5818666313194096       2387.8129258664944       -0.010483323581001446    0.0027462825494327255    1.5818666313194099
19.29378987970966         0.0027773802883866144    1.6031076663095807       2387.8109723771972       -0.011765675845895872    0.0027773802883866144    1.6031076663095807
19.431376842426005        0.002812911641771799     1.6244473304576403       2387.809158565062        -0.013067602018440703    0.002812911641771799     1.6244473304576403
19.568944231234696        0.002852876609588279     1.6458856237635886       2387.807484430088        -0.014389102098635944    0.002852876609588279     1.6458856237635886
19.70649204613574         0.0028972751918360552    1.6674225462274257       2387.805949972276        -0.015730176086481595    0.0028972751918360552    1.667422546227426
19.844020287129133        0.0029461073885151258    1.6890580978491518       2387.8045551916252       -0.01709082398197765     0.0029461073885151258    1.6890580978491516
19.981528954214877        0.002999373199625493     1.7107922786287661       2387.8033000881364       -0.018471045785124113    0.002999373199625493     1.7107922786287661
17.77904829643642         0.0025464102702748162    1.3749629946221327       2387.805698765387        0.0012705186586474437    0.0025464102702748162    1.3749629946221327
17.91685032903451         0.0025619863117422575    1.395175492631078        2387.8063747177493       1.8366236784931708E-4    0.0025619863117422575    1.395175492631078
18.054632611307376        0.002578504114381287     1.4154957574299887       2387.807270151979        -9.229442481783183E-4    0.0025785041143812876    1.4154957574299887
18.192395143255006        0.002595963678191906     1.4359237890188652       2387.808385068077        -0.002049301189435463    0.002595963678191906     1.4359237890188652
18.33013792487741         0.0026143650031741138    1.4564595873977075       2387.8097194660413       -0.0031954084559221163   0.0026143650031741138    1.4564595873977075
18.467860956174583        0.0026337080893279103    1.4771031525665157       2387.8112733458734       -0.004361266047638279    0.0026337080893279103    1.4771031525665157
18.60556423714653         0.0026539929366532953    1.4978544845252895       2387.8130467075725       -0.00554687396458395     0.0026539929366532957    1.4978544845252895
18.74324776779324         0.0026752195451502704    1.518713583274029        2387.8150395511393       -0.00675223220675913     0.0026752195451502704    1.518713583274029
15.709540020143173        0.00223975458130355      1.0855506086386002       2387.7482414213828       0.01509557569873073      0.00223975458130355      1.0855506086386002
15.847649145397922        0.002250446067046814     1.103995865203163        2387.749379885679        0.014315812064585912     0.0022504460670468144    1.103995865203163
15.985739060865937        0.002264092526936345     1.1225654070899227       2387.7501273555476       0.013516838643710756     0.002264092526936345     1.1225654070899225
16.123809766547218        0.002280693960972142     1.1412592342988788       2387.75048383099         0.012698655436105263     0.002280693960972142     1.1412592342988788
16.261861262441773        0.0023002503691542052    1.1600773468300323       2387.750449312005        0.01186126244176943      0.0023002503691542052    1.160077346830032
16.399893548549592        0.002322761751482536     1.179019744683382        2387.7500237985937       0.011004659660703258     0.002322761751482536     1.179019744683382
16.537906624870686        0.0023482281079571328    1.1980864278589287       2387.749207290755        0.010128847092906745     0.0023482281079571328    1.198086427858929
16.67590049140505         0.0023766494385779957    1.2172773963566725       2387.747999788489        0.009233824738379895     0.0023766494385779957    1.2172773963566725
16.813859982997137        0.0023866861664092495    1.236586944071776        2387.7529332793288       0.008304427441579262     0.0023866861664092495    1.236586944071776
16.951800612885464        0.0023999181445636024    1.2560111066634738       2387.758517879104        0.007356168441016934     0.0023999181445636024    1.2560111066634738
17.08972238107003         0.0024163453730410562    1.2755498841317654       2387.764753587814        0.006389047736692916     0.002416345373041056     1.2755498841317654
17.22762528755083         0.0024359678518416084    1.295203276476651        2387.771640405459        0.005403065328607205     0.0024359678518416084    1.295203276476651
17.36550933232787         0.0024587855809652614    1.3149712836981304       2387.7791783320386       0.004398221216759803     0.002458785580965261     1.3149712836981304
17.503374515401152        0.002484798560412013     1.334853905796204        2387.787367367553        0.003374515401150709     0.002484798560412013     1.3348539057962039
17.641220836770664        0.0025140067901818644    1.3548511427708714       2387.796207512003        0.002331947881779922     0.0025140067901818644    1.3548511427708714
20.119131131067963        0.003059313020389325     1.7326582763030995       2387.8080374202927       -0.01975775782092133     0.003059313020389325     1.7326582763030995
20.25671285756681         0.003114116796310607     1.7546435395203284       2387.8140795510085       -0.02106492021096257     0.003114116796310607     1.7546435395203284
20.394274133711416        0.0031637845273893377    1.7767480682804524       2387.8214264802837       -0.022392532955247835    0.0031637845273893377    1.7767480682804524
20.53181495950178         0.003208316213625518     1.7989718625834716       2387.8300782081183       -0.023740596053777114    0.003208316213625518     1.7989718625834716
20.669335334937895        0.003247711855019147     1.821314922429386        2387.8400347345123       -0.025109109506550417    0.003247711855019147     1.8213149224293859
20.806835260019767        0.0032819714515702255    1.8437772478181957       2387.8512960594667       -0.026498073313567745    0.0032819714515702255    1.8437772478181957
20.944314734747394        0.0033110950032787527    1.8663588387499006       2387.86386218298         -0.027907487474829094    0.003311095003278753     1.8663588387499006
21.08177375912078         0.00333508251014473      1.8890596952245007       2387.877733105053        -0.02933735199033446     0.00333508251014473      1.8890596952245007
26.560930141802313        0.0043739225698926545    2.874217718090223        2388.113362162768        -0.10573652486435284     0.0043739225698926545    2.874217718090223
26.697509601531166        0.004403397922392871     2.900226653595634        2388.1278697615935       -0.10804595402438687     0.004403397922392871     2.9002266535956336
26.834077814317034        0.004432298916875007     2.926271691500408        2388.143797493609        -0.11036663012740217     0.004432298916875007     2.926271691500408
26.97063478015993         0.004460625553339066     2.9523528318045456       2388.1611453588157       -0.11269855317339876     0.004460625553339065     2.952352831804546
27.10718049905984         0.0044883778317850445    2.978470074508048        2388.179913357213        -0.11504172316237662     0.0044883778317850445    2.978470074508048
27.243714971016768        0.004515555752212945     3.004623419610913        2388.2001014888015       -0.11739614009433576     0.004515555752212945     3.0046234196109136
27.38023819603072         0.004542159314622767     3.0308128671131427       2388.22170975358         -0.1197618039692762      0.004542159314622767     3.0308128671131427
27.516750174101688        0.00456818851901451      3.057038417014735        2388.24473815155         -0.1221387147871979      0.00456818851901451      3.057038417014735
27.653250905229672        0.004593643365388174     3.083300069315692        2388.2691866827104       -0.12452687254810088     0.004593643365388174     3.083300069315692
21.219180397052206        0.003356531380542871     1.9119124112850814       2387.877071436636        -0.030819602947798362    0.003356531380542871     1.9119124112850814
21.35656409180332         0.003378462535029075     1.9348707594212025       2387.875266251765        -0.03232479708556915     0.003378462535029074     1.9348707594212025
21.49392484337413         0.0034008759736033393    1.9579347396328632       2387.872317550439        -0.0338529344036468      0.0034008759736033397    1.9579347396328632
21.631262651764636        0.003423771696265667     1.9811043519200644       2387.868225332659        -0.03540401490203133     0.003423771696265667     1.9811043519200644
21.768577516974837        0.0034471497030160564    2.0043795962828055       2387.8629895984245       -0.03697803858072274     0.0034471497030160564    2.0043795962828055
21.90586943900472         0.003471009993854508     2.027760472721087        2387.856610347736        -0.038575005439721026    0.003471009993854508     2.027760472721087
22.043138417854312        0.0034953525687810216    2.0512469812349083       2387.8490875805924       -0.04019491547902618     0.0034953525687810216    2.0512469812349083
22.180384453523583        0.003520177427795597     2.07483912182427         2387.8404212969945       -0.041837768698638214    0.003520177427795597     2.07483912182427
24.37325936385382         0.003963858795647932     2.4651733527109934       2387.915914210567        -0.07118508059061945     0.003963858795647932     2.4651733527109934
24.51011709250039         0.003992301434976592     2.4902835061283084       2387.9254760231483       -0.07321624083294104     0.003992301434976592     2.4902835061283084
24.646958257037614        0.004020167773056904     2.5154571934725425       2387.934856875677        -0.07526396518460875     0.004020167773056904     2.5154571934725425