% Model:              16-12-8--150%--10-10-10.mph
% Version:            COMSOL 6.1.0.252
% Date:               Sep 6 2024, 16:35
% Dimension:          3
% Nodes:              217
% Expressions:        4
% Description:        线
% x                       y                        z                        磁标势                      u                        v                        w
2.23995568786768          0.0018962202561267954    0.040439438302600925     3183.0712287844917       0.017733465645458354     0.0018962202561267954    0.040439438302600925
2.379947895414352         0.001882262096189848     0.045975042486921545     3183.11545360546         0.018836784303241573     0.001882262096189848     0.045975042486921545
2.519919140741299         0.001868530781317388     0.051850195092881766     3183.156308933617        0.01991914074129957      0.001868530781317388     0.051850195092881766
2.659869423848521         0.0018550263115094151    0.05806489612048157      3183.193794768962        0.020980534959632344     0.0018550263115094151    0.05806489612048157
2.7997987447360173        0.0018417486867659302    0.06461914556972097      3183.2279111114963       0.022020966958239897     0.0018417486867659302    0.06461914556972097
2.939707103403789         0.0018286979070869327    0.07151294344059995      3183.2586579612184       0.02304043673712223      0.0018286979070869327    0.07151294344059995
3.079594499851835         0.0018158739724724227    0.07874628973311852      3183.2860353181295       0.024038944296279334     0.0018158739724724227    0.07874628973311852
3.2194609340801557        0.0018032768829224003    0.08631918444727668      3183.3100431822286       0.02501648963571122      0.0018032768829224003    0.0863191844472767
3.3593064060887516        0.0017909066384368653    0.09423162758307445      3183.330681553516        0.02597307275541788      0.0017909066384368653    0.09423162758307445
8.925484177212248         0.0012957982120851781    0.6672045272586397       3183.5827169384356       0.03659528832335826      0.0012957982120851781    0.6672045272586397
9.06382888964139          0.0012823504226007595    0.6873857091266954       3183.584591483475        0.03605111186361316      0.0012823504226007595    0.6873857091266954
9.202132557661718         0.0012781467560912696    0.7078341646923905       3183.5864175854017       0.035465890995051354     0.0012781467560912696    0.7078341646923906
9.340395181273228         0.0012831872125567086    0.7285498939557251       3183.588195244214        0.03483962571767285      0.0012831872125567086    0.7285498939557251
9.478616760475923         0.0012974717919970761    0.749532896916699        3183.589924459914        0.034172316031477634     0.0012974717919970761    0.749532896916699
9.616797295269798         0.001321000494412372     0.7707831735753123       3183.5916052325          0.033463961936465725     0.001321000494412372     0.7707831735753123
9.75493678565486          0.0013537733198025971    0.792300723931565        3183.593237561973        0.03271456343263711      0.0013537733198025971    0.7923007239315651
9.893035231631103         0.0013957902681677506    0.8140855479854572       3183.5948214483333       0.031924120519991786     0.0013957902681677504    0.8140855479854572
10.031092633198531        0.0014470513395078329    0.8361376457369888       3183.5963568915795       0.031092633198529764     0.0014470513395078329    0.8361376457369888
3.4991113048140154        0.0017840765778068697    0.10251292083631064      3183.3406202606616       0.026889082591793474     0.0017840765778068697    0.10251292083631064
3.6388891538840467        0.0017755334399792615    0.11111881778811439      3183.3493097223877       0.027778042772935857     0.0017755334399792615    0.11111881778811439
3.778639953298845         0.0017652772249540402    0.12004931843848564      3183.3567499386936       0.028639953298845028     0.0017652772249540402    0.12004931843848564
3.9183637030584095        0.0017533079327312065    0.1293044227874244       3183.3629409095806       0.02947481416952098      0.0017533079327312065    0.1293044227874244
4.058060403162741         0.0017396255633107603    0.1388841308349307       3183.3678826350474       0.030282625384963725     0.0017396255633107603    0.1388841308349307
4.197730053611839         0.0017242301166927008    0.14878844258100452      3183.3715751150953       0.031063386945173254     0.0017242301166927008    0.1487884425810045
4.337372654405705         0.0017071215928770292    0.15901735802564584      3183.374018349723        0.03181709885014957      0.001707121592877029     0.15901735802564584
4.4769882055443375        0.0016882999918637447    0.1695708771688547       3183.375212338931        0.032543761099892675     0.0016882999918637447    0.1695708771688547
4.616560453658267         0.0016764743883545445    0.18047920889257602      3183.394008026558        0.03322712032493321      0.0016764743883545448    0.18047920889257602
4.756100689733626         0.0016640624150055087    0.19169620496170262      3183.4116874353394       0.033878467511404005     0.0016640624150055087    0.19169620496170262
4.895608913770416         0.001651064071816637     0.2032218653762345       3183.4282505652764       0.03449780265930508      0.0016510640718166369    0.2032218653762345
5.035085125768637         0.0016374793587879293    0.2150561901361716       3183.443697416368        0.03508512576863641      0.0016374793587879293    0.2150561901361716
5.174529325728287         0.001623308275919386     0.22719917924151398      3183.4580279886154       0.03564043683939802      0.001623308275919386     0.22719917924151398
5.313941513649369         0.001608550823211007     0.23965083269226162      3183.4712422820166       0.0361637358715899       0.001608550823211007     0.23965083269226162
5.453321689531879         0.001593207000662792     0.2524111504884145       3183.4833402965737       0.03665502286521204      0.001593207000662792     0.2524111504884145
5.592669853375821         0.0015772768082747413    0.2654801326299726       3183.4943220322853       0.03711429782026446      0.0015772768082747413    0.2654801326299726
7.817124702775067         0.0013975063779190862    0.5152412259114242       3183.4907366686916       0.039346924997286474     0.0013975063779190862    0.5152412259114242
7.955813751864403         0.0013833040594436587    0.5332818589995256       3183.506214296609        0.039147085197733515     0.0013833040594436585    0.5332818589995256
8.09446162530097          0.001369527111752857     0.5515952862534271       3183.520554754755        0.03890606974541253      0.0013695271117528567    0.5515952862534271
8.23306832308477          0.0013561755348466798    0.5701815076731288       3183.5337580431296       0.03862387864032354      0.0013561755348466798    0.5701815076731288
8.371633845215802         0.0013432493287251286    0.5890405232586307       3183.545824161733        0.03830051188246652      0.0013432493287251286    0.5890405232586307
8.510158191694066         0.001330748493388203     0.6081723330099327       3183.5567531105653       0.03793596947184148      0.0013307484933882032    0.6081723330099327
8.64864136251956          0.0013186730288359027    0.6275769369270348       3183.5665448896266       0.03753025140844843      0.0013186730288359024    0.6275769369270349
8.787083357692287         0.0013070229350682274    0.6472543350099372       3183.575199498917        0.03708335769228736      0.0013070229350682276    0.6472543350099372
5.7319771678997045        0.0015656183869075446    0.27889101011029926      3183.4958524865706       0.03753272345526012      0.0015656183869075444    0.2788910101102992
5.871248141532102         0.001554212951495166     0.2925959317405547       3183.496202243369        0.037914808198767073     0.001554212951495166     0.2925959317405547
6.010482774273009         0.0015430605020376046    0.306594897520739        3183.495371302683        0.038260552050785324     0.0015430605020376046    0.306594897520739
6.149681066122428         0.0015321610385348615    0.3208879074508521       3183.49335966451         0.03856995501131487      0.0015321610385348615    0.3208879074508521
6.2888430170803575        0.0015215145609869362    0.335474961530894        3183.4901673288514       0.038843017080355716     0.0015215145609869362    0.335474961530894
6.427968627146798         0.0015111210693938286    0.3503560597608648       3183.485794295707        0.03907973825790785      0.0015111210693938286    0.3503560597608648
6.56705789632175          0.001500980563755539     0.3655312021407644       3183.480240565076        0.03928011854397129      0.001500980563755539     0.36553120214076434
6.706110824605214         0.0014910930440720672    0.38100038867059277      3183.4735061369593       0.03944415793854601      0.0014910930440720672    0.38100038867059277
6.845116342041501         0.0014672848223512942    0.39679186595843124      3183.480942822501        0.039560786485944195     0.001467284822351294     0.39679186595843124
6.984085064430628         0.0014469365687595638    0.4128658082083455       3183.4868701168784       0.03964061998618363      0.0014469365687595638    0.4128658082083455
7.123016991772599         0.0014300482832968768    0.4292222154203356       3183.491288020092        0.03968365843926431      0.0014300482832968766    0.4292222154203356
7.261912124067409         0.0014166199659632326    0.44586108759440163      3183.4941965321404       0.03968990184518623      0.0014166199659632326    0.44586108759440163
7.400770461315062         0.0014066516167586314    0.4627824247305435       3183.495595653025        0.03965935020394942      0.0014066516167586314    0.4627824247305435
7.539592003515556         0.0014001432356830733    0.4799862268287612       3183.495485382745        0.03959200351555385      0.0014001432356830733    0.4799862268287612
7.678376750668891         0.0013970948227365583    0.49747249388905473      3183.4938657213006       0.039487861779999536     0.0013970948227365583    0.49747249388905473
0                         0                        0                        3180.9151808352817       0                        0                        0
0.13986770241959787       5.480157711380522E-4     4.2085200579988744E-6    3181.199336641083        9.788135307089065E-4     5.480157711380522E-4     4.208520057998821E-6
0.279753560691263         0.0010126773922442486    3.3329781738118187E-4    3181.4628849201004       0.001975782913485106     0.0010126773922442486    3.3329781738118187E-4
0.4196575748149954        0.001393984863318589     9.872678919695488E-4     3181.7058256723353       0.002990908148328599     0.001393984863318589     9.872678919695488E-4
0.5595797447907952        0.001691938184361074     0.0019661187438231       3181.928158897787        0.004024189235239385     0.001691938184361074     0.0019661187438231
0.6995200706186621        0.001906537355371703     0.0032698503729418353    3182.129884596455        0.005075626174217465     0.0019065373553717028    0.0032698503729418353
0.8394785522985965        0.002037782376350476     0.004898462779325755     3182.3110027683406       0.0061452189652628384    0.002037782376350476     0.004898462779325755
0.979455189830598         0.0020856732472973936    0.0068519559629748586    3182.471513413443        0.007232967608375505     0.0020856732472973936    0.0068519559629748586
1.119449983214667         0.0020502099682124554    0.009130329923889147     3182.6114165317617       0.008338872103555465     0.0020502099682124554    0.009130329923889147
1.2595663944319009        0.0020224940869196014    0.011796872144530755     3182.6918630115147       0.009566394431900622     0.002022494086919602     0.011796872144530755
1.3996676061818183        0.0019971973962787893    0.014819727601371614     3182.765746648935        0.010778717292929408     0.0019971973962787893    0.01481972760137161
1.5397536184644194        0.0019743198962900196    0.018198896294411713     3182.833067444024        0.011975840686641823     0.0019743198962900196    0.018198896294411713
1.6798244312797044        0.0019538615869532914    0.02193437822365106      3182.893825396781        0.01315776461303787      0.0019538615869532914    0.02193437822365106
1.8198800446276728        0.0019358224682686047    0.026026173389089656     3182.948020507206        0.014324489072117546     0.0019358224682686047    0.026026173389089656
1.9599204585083245        0.00192020254023596      0.0304742817907275       3182.9956527752997       0.01547601406388085      0.00192020254023596      0.0304742817907275
2.0999456729216606        0.0019070018028553568    0.035278703428564595     3183.036722201062        0.016612339588327786     0.0019070018028553568    0.03527870342856459
11.135109342348114        0.0016331038122323438    1.023517825263158        3183.599606177193        0.023998231237000223     0.0016331038122323438    1.023517825263158
11.272868694975504        0.0016370574528602711    1.0483762433425539       3183.6033086882594       0.02286869497550234      0.0016370574528602713    1.0483762433425539
11.410563065696294        0.0016404257136225047    1.0735278362297511       3183.6066850057873       0.021674176807403366     0.0016404257136225047    1.0735278362297511
11.54819245451048         0.001643208594519044     1.0989726039247498       3183.6097351297776       0.0204146767327033       0.001643208594519044     1.0989726039247498
11.685756861418067        0.001645406095549889     1.1247105464275495       3183.6124590602294       0.019090194751402147     0.001645406095549889     1.1247105464275495
11.823256286419054        0.00164701821671504      1.150741663738151        3183.614856797143        0.0177007308634999       0.00164701821671504      1.150741663738151
11.96069072951344         0.001648044958014497     1.1770659558565533       3183.6169283405193       0.016246285068996565     0.001648044958014497     1.1770659558565533
12.098060190701222        0.0016484863194482595    1.2036834227827573       3183.6186736903574       0.01472685736789214      0.0016484863194482597    1.2036834227827573
12.235364669982406        0.0016483423010163285    1.2305940645167623       3183.6200928466574       0.013142447760186625     0.0016483423010163285    1.2305940645167623
12.372597614064677        0.0016531575157864387    1.2578371258751457       3183.6288426659426       0.011486502953567826     0.0016531575157864387    1.2578371258751455
12.509767483933333        0.0016571183752162406    1.2853538988138533       3183.6357734063704       0.009767483933333836     0.0016571183752162406    1.2853538988138533
12.646874279588374        0.001660224879305734     1.3131443833328855       3183.6408850679404       0.007985390699484653     0.001660224879305734     1.3131443833328855
12.783918001029798        0.001662477028054919     1.341208579432242        3183.644177650654        0.006140223252020276     0.001662477028054919     1.341208579432242
12.920898648257607        0.0016638748214637955    1.369546487111923        3183.6456511545102       0.004231981590940709     0.0016638748214637955    1.369546487111923
13.057816221271803        0.0016644182595323637    1.3981581063719282       3183.645305579509        0.0022606657162459473    0.0016644182595323637    1.3981581063719282
13.19467072007238         0.0016641073422606237    1.427043437212258        3183.6431409256516       2.262756279359941E-4     0.0016641073422606237    1.4270434372122582
13.331462144659344        0.001662942069648575     1.4562024796329123       3183.639157192936        -0.0018711886739891516   0.001662942069648575     1.4562024796329123
10.169290992394904        0.0015041694299424379    0.8584603036415733       3183.5908762829044       0.030402103506013085     0.0015041694299424379    0.8584603036415733
10.307433274290512        0.0015516127971358883    0.8810972085564971       3183.5870776083366       0.029655496512732266     0.0015516127971358883    0.8810972085564971
10.445519478885355        0.001589381441088184     0.9040483604817596       3183.5849608678773       0.028852812218687292     0.0015893814410881842    0.9040483604817596
10.583549606179435        0.0016174753617993253    0.9273137594173614       3183.584526061525        0.027994050623878178     0.0016174753617993253    0.9273137594173614
10.721523656172751        0.0016358945592693118    0.950893405363302        3183.5857731892806       0.02707921172830491      0.0016358945592693118    0.950893405363302
10.859441628865305        0.0016446390334981438    0.9747872983195817       3183.588702251144        0.026108295531967498     0.0016446390334981438    0.9747872983195817
10.997303524257092        0.001643708784485821     0.9989954382862002       3183.5933132471146       0.025081302034865936     0.0016437087844858212    0.9989954382862002
13.468162049449825        0.0016673210056920144    1.4856685202717435       3183.6464922698037       -0.004060172772395316    0.0016673210056920142    1.4856685202717435
13.604796850360147        0.0016709487731617577    1.5153882225777127       3183.6535120949275       -0.006314260750961446    0.0016709487731617577    1.5153882225777127
13.741366547390312        0.0016738253720578059    1.5453615865508201       3183.6602166683083       -0.008633452609687542    0.0016738253720578059    1.5453615865508201
13.877871140540314        0.001675950802380158     1.5755886121910656       3183.6666059899453       -0.011017748348573598    0.001675950802380158     1.5755886121910656
14.014310629810158        0.0016773250641288148    1.6060692994984491       3183.672680059839        -0.01346714796761962     0.0016773250641288148    1.6060692994984491
14.15068501519984         0.0016779481573037758    1.636803648472971        3183.678438877989        -0.01598165146682561     0.0016779481573037758    1.6368036484729709
14.286994296709363        0.0016778200819050413    1.667791659114631        3183.6838824443957       -0.018561258846191562    0.0016778200819050413    1.667791659114631
14.423238474338728        0.001676940837932611     1.699033331423429        3183.689010759059        -0.021205970105717478    0.001676940837932611     1.699033331423429
14.559403261084586        0.001655606268192299     1.7305572708864485       3183.6841811130066       -0.02393007224874606     0.001655606268192299     1.7305572708864485
14.695507647710293        0.0016379804814152291    1.7623192521340012       3183.679641195773        -0.026714574511929975    0.0016379804814152291    1.7623192521340008
14.831551634215842        0.001624063477601401     1.7943192751660866       3183.6753910073576       -0.029559476895269214    0.001624063477601401     1.7943192751660866
14.967535220601235        0.0016138552567508148    1.826557339982705        3183.6714305477603       -0.0324647793987638      0.0016138552567508148    1.826557339982705
15.103458406866475        0.0016073558188634705    1.8590334465838572       3183.6677598169817       -0.03543048202241371     0.0016073558188634705    1.8590334465838572
15.239321193011559        0.0016045651639393684    1.891747594969542        3183.664378815022        -0.03845658476621895     0.0016045651639393684    1.891747594969542
15.375123579036487        0.0016054832919785082    1.92469978513976         3183.66128754188         -0.04154308763017954     0.0016054832919785082    1.9246997851397598
15.510865564941259        0.0016101102029808898    1.957890017094511        3183.658485997557        -0.044689990614295454    0.0016101102029808898    1.957890017094511
18.749460820864275        0.0013724897060533045    2.818129262106882        3183.736922504776        -0.13942806802461408     0.0013724897060533045    2.818129262106882
18.88365185567211         0.001364678871025316     2.8563747402322917       3183.733480099427        -0.14412592210566502     0.001364678871025316     2.8563747402322917
19.017784791898872        0.0013646294954656594    2.8947934718437445       3183.7301733721006       -0.14888187476779113     0.0013646294954656596    2.8947934718437445
19.151859629544564        0.0013723415793743354    2.933385456941241        3183.727002322798        -0.15369592601099247     0.0013723415793743354    2.9333854569412408
19.285876368609173        0.0013878151227513435    2.9721506955247796       3183.723966951518        -0.15856807583526905     0.0013878151227513435    2.9721506955247796
19.41983500909271         0.0014110501255966842    3.0110891875943615       3183.7210672582614       -0.16349832424062083     0.0014110501255966842    3.011089187594361
19.55373555099517         0.0014420465879103565    3.050200933149986        3183.7183032430275       -0.16848667122704786     0.0014420465879103565    3.0502009331499864
19.68757799431656         0.0014808045096923613    3.089485932191654        3183.715674905817        -0.17353311679455008     0.0014808045096923613    3.089485932191654
19.821362339056872        0.0015273238909426987    3.1289441847193644       3183.71318224663         -0.1786376609431275      0.0015273238909426987    3.1289441847193644
17.67384997326167         0.0014776109965736908    2.5185747043857707       3183.7269890164343       -0.10392780451610237     0.0014776109965736908    2.5185747043857707
17.808509737896813        0.001459582581802894     2.555353554579427        3183.727298381827        -0.10815692876984954     0.001459582581802894     2.5553535545794275
17.943109957193442        0.0014429508108765967    2.5923225389220783       3183.727874124548        -0.1124455983621158      0.0014429508108765965    2.5923225389220788
18.077650631151545        0.001427715683794799     2.629481657413725        3183.728716244598        -0.11679381329290116     0.001427715683794799     2.629481657413725
18.21213175977113         0.0014138772005575007    2.666830910054366        3183.7298247419767       -0.12120157356220557     0.0014138772005575007    2.666830910054366
18.346553343052197        0.0014014353611647022    2.7043702968440027       3183.7311996166836       -0.12566887917002909     0.0014014353611647022    2.704370296844002
18.48091538099474         0.0013903901656164034    2.7420998177826337       3183.732840868719        -0.13019573011637164     0.0013903901656164032    2.742099817782634
18.615217873598766        0.0013807416139126041    2.78001947287026         3183.7347484980833       -0.13478212640123333     0.0013807416139126041    2.78001947287026
15.646513898185429        0.0015824083965821035    1.991311890968823        3183.6598822716855       -0.047930546259014654    0.0015824083965821035    1.991311890968823
15.782102275877056        0.00155976530863818      2.024954837313945        3183.6607779487344       -0.05123105745627297     0.00155976530863818      2.024954837313945
15.917630698016154        0.0015421809391491196    2.0588188561298764       3183.6611730287045       -0.05459152420607035     0.0015421809391491198    2.0588188561298764
16.053099164602703        0.001529655288114922     2.092903947416618        3183.661067511595        -0.058011946508406846    0.001529655288114922     2.092903947416618
16.188507675636718        0.0015221883555355876    2.1272101111741692       3183.660461397406        -0.06149232436328243     0.0015221883555355876    2.1272101111741692
16.323856231118192        0.0015197801414111155    2.1617373474025308       3183.6593546861372       -0.06503265777069711     0.0015197801414111158    2.1617373474025308
16.45914483104713         0.001522430645741507     2.1964856561017014       3183.6577473777893       -0.06863294673065089     0.0015224306457415069    2.1964856561017014
16.594373475423527        0.0015301398685267612    2.2314550372716826       3183.655639472362        -0.07229319124314375     0.0015301398685267612    2.2314550372716826
16.72951273007047         0.0015042628612319186    2.266634175387684        3183.6615048103363       -0.0760428254850887      0.0015042628612319186    2.266634175387684
16.86459350116965         0.0014839032534515644    2.3020164050103316       3183.6682425354634       -0.0798509432747979      0.0014839032534515644    2.3020164050103316
16.999615788721062        0.0014690610451856985    2.3376017261396242       3183.6758526477433       -0.08371754461227135     0.0014690610451856985    2.3376017261396242
17.134579592724712        0.0014597362364343206    2.3733901387755627       3183.684335147176        -0.08764262949750905     0.0014597362364343206    2.3733901387755627
17.2694849131806          0.0014559288271974308    2.409381642918146        3183.693690033762        -0.09162619793051101     0.0014559288271974308    2.409381642918146
17.404331750088723        0.001457638817475029     2.4455762385673756       3183.7039173074995       -0.0956682499112772      0.0014576388174750293    2.4455762385673756
17.53912010344908         0.0014648662072671162    2.4819739257232505       3183.7150169683905       -0.09976878543980766     0.001464866207267116     2.4819739257232505
19.955282707003057        0.00158557416862133      3.1686634407486793       3183.718387912097        -0.18360618188583058     0.00158557416862133      3.1686634407486793
20.089137475028892        0.001634210402892886     3.208592332802209        3183.7253456791177       -0.18864030274888374     0.001634210402892886     3.208592332802209
20.222926643134382        0.001673232593757366     3.2487308608799528       3183.7340555476917       -0.19374002353228703     0.001673232593757366     3.2487308608799528
20.356650211319515        0.0017026407412147702    3.289079024981912        3183.7445175178195       -0.19890534423604037     0.0017026407412147702    3.289079024981912
20.4903081795843          0.0017224348452650987    3.3296368251080866       3183.756731589501        -0.2041362648601438      0.0017224348452650985    3.3296368251080866
20.623900547928738        0.0017326149059083513    3.3704042612584764       3183.770697762736        -0.20943278540459734     0.0017326149059083513    3.370404261258476
20.75742731635282         0.0017331809231445282    3.4113813334330803       3183.7864160375248       -0.2147949058694009      0.0017331809231445282    3.41138133343308
20.890888484856557        0.0017241328969736297    3.4525680416318996       3183.803886413867        -0.22022262625455458     0.0017241328969736297    3.4525680416318996
26.174919515164905        0.0013298363755800593    5.233573952006742        3184.0303259970415       -0.49174715150175924     0.0013298363755800593    5.233573952006742
26.305933472294832        0.0013228544260972246    5.280461753343319        3184.0440783288045       -0.4996220832607215      0.0013228544260972246    5.280461753343319
26.436917231285335        0.0013147155744304454    5.327410780913977        3184.0590862363133       -0.5075272131591015      0.0013147155744304454    5.327410780913977
26.56787079213643         0.0013054198205797213    5.374421034718715        3184.0753497195687       -0.5154625411968993      0.001305419820579721     5.374421034718715
26.698794154848102        0.0012949671645450524    5.4214925147575315       3184.09286877857         -0.523428067374115       0.0012949671645450524    5.4214925147575315
26.829687319420355        0.001283357606326439     5.46862522103043         3184.1116434133173       -0.5314237916907482      0.0012833576063264389    5.46862522103043
26.960550285853195        0.0012705911459238806    5.515819153537406        3184.13167362381         -0.5394497141467993      0.0012705911459238806    5.515819153537406
27.091383054146615        0.0012566677833373778    5.563074312278465        3184.152959410049        -0.5475058347422681      0.0012566677833373778    5.563074312278465
27.222185624300618        0.00124158751856693      5.610390697253602        3184.175500772034        -0.5555921534771547      0.00124158751856693      5.610390697253602
21.02421777124509         0.0017104653214570899    3.4940172485946603       3183.8019831933107       -0.22578222875491186     0.0017104653214570899    3.4940172485946603
21.157479204276772        0.0016974479201291987    3.5356503554355116       3183.798582847584        -0.23140968461211994     0.001697447920129199     3.5356503554355116
21.2906727839516          0.0016850806929899556    3.5774673621544526       3183.793685376688        -0.23710499382617894     0.0016850806929899556    3.5774673621544526
21.423798510269577        0.0016733636400393605    3.619468268751485        3183.7872907806213       -0.24286815639708884     0.0016733636400393605    3.619468268751485
21.556856383230706        0.0016622967612774137    3.6616530752266065       3183.779399059385        -0.24869917232484962     0.0016622967612774137    3.6616530752266065
21.689846402834988        0.0016518800567041146    3.704021781579819        3183.7700102129793       -0.2545980416094612      0.0016518800567041148    3.704021781579819
21.82276856908241         0.0016421135263194645    3.7465743878111217       3183.7591242414032       -0.2605647642509236      0.0016421135263194645    3.7465743878111217
21.955622881972985        0.001632997170123462     3.789310893920514        3183.7467411446573       -0.2665993402492369      0.001632997170123462     3.789310893920514
24.072446406515308        0.0015349497436465353    4.495388368991696        3183.82206952763         -0.3719980379291305      0.0015349497436465353    4.495388368991696
24.204205000708658        0.0015284201740876511    4.540746501655162        3183.8325588579983       -0.3791283326246695      0.0015284201740876511    4.540746501655163
24.335916659145266        0.00152067215368855      4.586213706952578        3183.8426878776813       -0.38630556307695385     0.00152067215368855      4.586213706952578
24.467581381825127        0.0015117056824492316    4.631789984883943        3183.8524565866796       -0.39352972928598334     0.0015117056824492316    4.631789984883943