% Model:              16-12-8--150%--10-10-10.mph
% Version:            COMSOL 6.1.0.252
% Date:               Sep 6 2024, 16:36
% Dimension:          3
% Nodes:              217
% Expressions:        4
% Description:        线
% x                       y                        z                        磁标势                      u                        v                        w
2.3029814496851744        0.009483518096818829     0.22757920449486713      7958.47293387495         0.08075922746295247      0.009483518096818829     0.22757920449486713
2.4448382964721174        0.009332254303198518     0.25828328500311504      7958.530557142501        0.08372718536100654      0.009332254303198518     0.25828328500311504
2.586217206389172         0.009185437240421012     0.29067155356382024      7958.58353263336         0.08621720638917252      0.009185437240421012     0.29067155356382035
2.7271181794363386        0.009043066908486313     0.324744010176983        7958.631860347531        0.08822929054745043      0.009043066908486313     0.324744010176983
2.8675412156136177        0.008905143307394418     0.3605006548426032       7958.675540285011        0.08976343783584027      0.008905143307394418     0.3605006548426032
3.0074863149210085        0.008771666437145331     0.39794148756068076      7958.714572445801        0.09081964825434204      0.00877166643714533      0.39794148756068076
3.146953477358511         0.008642636297739047     0.43706650833121574      7958.7489568299015       0.09139792180295572      0.008642636297739047     0.43706650833121574
3.2859427029261257        0.008518052889175572     0.4778757171542082       7958.7786934373125       0.09149825848168136      0.008518052889175572     0.4778757171542082
3.4244539916238526        0.008397916211454902     0.520369114029658        7958.803782268033        0.0911206582905189       0.008397916211454902     0.520369114029658
8.386726556659665         0.002771179146262999     3.3445781058436372       7959.049463446           -0.5021623322292241      0.002771179146262999     3.3445781058436372
8.495287310213573         0.002643838797901453     3.437193200013254        7959.05438839813         -0.5324904675642046      0.002643838797901453     3.4371932000132537
8.603084891088242         0.002547927700818839     3.5306310669864156       7959.057952829733        -0.5635817755784253      0.002547927700818839     3.5306310669864156
8.710119299283669         0.0024834458550151563    3.6248917067631234       7959.060156740812        -0.5954362562718857      0.0024834458550151567    3.6248917067631234
8.816390534799858         0.0024503932604904057    3.7199751193433763       7959.061000131364        -0.6280539096445862      0.0024503932604904057    3.7199751193433763
8.921898597636806         0.002448769917244587     3.8158813047271747       7959.060483001393        -0.6614347356965268      0.0024487699172445875    3.8158813047271747
9.026643487794514         0.0024785758252776997    3.9126102629145176       7959.058605350894        -0.6955787344277072      0.0024785758252776997    3.9126102629145176
9.130625205272983         0.002539810984589745     4.010161993905407        7959.055367179872        -0.7304859058381278      0.002539810984589745     4.010161993905407
9.23384375007221          0.0026324753951807215    4.10853649769984         7959.050768488323        -0.7661562499277884      0.0026324753951807215    4.10853649769984
3.5620853974697306        0.008315004409558522     0.564961478224128        7958.8088719375155       0.08986317524750866      0.008315004409558522     0.5649614782241281
3.699123389612348         0.00821400920563616      0.6110536928110727       7958.8119099846235       0.08801227850123677      0.00821400920563616      0.6110536928110727
3.8355679680517034        0.008094930599687824     0.6586457577904915       7958.812896409354        0.08556796805170323      0.008094930599687824     0.6586457577904915
3.971419132787797         0.00795776859171351      0.7077376731623847       7958.8118312117085       0.082530243898908        0.00795776859171351      0.7077376731623847
4.1066768838206285        0.007802523181713219     0.7583294389267522       7958.8087143916855       0.07889910604285114      0.007802523181713219     0.7583294389267523
4.241341221150199         0.007629194369686952     0.8104210550835943       7958.803545949287        0.07467455448353261      0.007629194369686951     0.8104210550835943
4.375412144776508         0.007437782155634707     0.8640125216329106       7958.796325884511        0.06985658922095243      0.007437782155634708     0.8640125216329106
4.508889654699555         0.007228286539556487     0.9191038385747013       7958.787054197359        0.06444521025511059      0.007228286539556487     0.9191038385747013
4.641398534292518         0.007110910114217888     0.9760980741396179       7958.817036466372        0.05806520095918586      0.007110910114217888     0.9760980741396177
4.773231267014762         0.0069865035248504025    1.034404629236175        7958.845355333973        0.051009044792539        0.0069865035248504025    1.034404629236175
4.904387852866281         0.006855066771454028     1.0940235038643729       7958.872010800157        0.04327674175516998      0.006855066771454028     1.0940235038643729
5.034868291847079         0.006716599854028766     1.1549546980242116       7958.897002864929        0.03486829184707884      0.006716599854028766     1.1549546980242116
5.164672583957156         0.006571102772574616     1.2171982117156905       7958.920331528286        0.02578369506826555      0.006571102772574616     1.2171982117156905
5.293800729196509         0.006418575527091578     1.2807540449388108       7958.941996790228        0.01602295141873012      0.006418575527091578     1.2807540449388108
5.422252727565139         0.006259018117579652     1.3456221976935714       7958.961998650756        0.005586060898472546     0.006259018117579652     1.3456221976935714
5.550028579063048         0.0060924305440388385    1.4118026699799728       7958.980337109869        -0.0055269764925071655   0.0060924305440388385    1.4118026699799728
7.490262323617872         0.004015123632236646     2.634623029952207        7958.88186255208         -0.2875154541599084      0.004015123632236646     2.634623029952207
7.604956955121057         0.003866663764609531     2.7201339084546046       7958.912206118981        -0.3117097115456111      0.003866663764609531     2.7201339084546046
7.7188982716605405        0.0037161944132339617    2.806568645809582        7958.939865841551        -0.3366572838950172      0.0037161944132339617    2.806568645809582
7.832086273236321         0.003563715578109937     2.8939272420171407       7958.964841719788        -0.36235817120812663     0.003563715578109937     2.8939272420171407
7.944520959848395         0.0034092272592374587    2.982209697077279        7958.987133753694        -0.3888123734849394      0.0034092272592374587    2.982209697077279
8.056202331496769         0.0032527294566165256    3.0714160109899984       7959.006741943269        -0.41601989072545553     0.0032527294566165256    3.071416010989998
8.167130388181436         0.0030942221702471378    3.1615461837552976       7959.023666288511        -0.44398072292967505     0.0030942221702471378    3.161546183755297
8.277305129902404         0.002933705400129296     3.2526002153731772       7959.037906789421        -0.4726948700975979      0.0029337054001292956    3.2526002153731772
5.676853511206345         0.005964645628272856     1.4796866700169786       7958.974719555637        -0.017590933238098603    0.005964645628272856     1.4796866700169786
5.802956262284693         0.005837537906268469     1.548720512056004        7958.96756448761         -0.03037707104864115     0.005837537906268469     1.548720512056004
5.928336832298089         0.005711107378025678     1.618904196097049        7958.958871905785        -0.043885389924134814    0.005711107378025678     1.618904196097049
6.052995221246532         0.00558535404354448      1.6902377221401135       7958.948641810161        -0.05811588986457959     0.00558535404354448      1.6902377221401135
6.1769314291300255        0.0054602779028248795    1.762721090185198        7958.936874200739        -0.07306857086997548     0.0054602779028248795    1.762721090185198
6.3001454559485675        0.005335878955866873     1.8363543002323017       7958.923569077521        -0.0887434329403225      0.005335878955866873     1.8363543002323017
6.422637301702158         0.005212157202670461     1.9111373522814254       7958.908726440505        -0.10514047607562062     0.005212157202670461     1.9111373522814254
6.544406966390798         0.005089112643235646     1.9870702463325685       7958.892346289692        -0.12225970027586984     0.005089112643235646     1.9870702463325685
6.665175122089028         0.004878402885864858     2.064391105424713        7958.8997482957875       -0.14038043346652773     0.004878402885864857     2.064391105424713
6.7852186389173035        0.004689539165921473     2.142747175619803        7958.9046610237965       -0.15922580552714194     0.004689539165921473     2.142747175619803
6.904537516875622         0.004522521483405492     2.2221384569178393       7958.907084473722        -0.17879581645771234     0.004522521483405492     2.222138456917839
7.023131755963984         0.004377349838316915     2.3025649493188207       7958.907018645563        -0.19909046625823903     0.004377349838316915     2.3025649493188207
7.14100135618239          0.004254024230655742     2.3840266528227487       7958.904463539319        -0.220109754928722       0.004254024230655742     2.3840266528227487
7.25814631753084          0.004152544660421973     2.4665235674296224       7958.899419154991        -0.24185368246916122     0.0041525446604219725    2.466523567429622
7.374566640009332         0.0040729111276156076    2.5500556931394414       7958.891885492578        -0.2643222488795567      0.0040729111276156076    2.5500556931394414
0                         0                        0                        7955.992957413529        0                        0                        0
0.1442481871722247        0.0029532583295533853    3.5575674313735015E-4    7956.336842346222        0.005359298283335801     0.0029532583295533853    3.557567431373506E-4
0.2885130406710878        0.005442654527867342     0.0024808017647945228    7956.6540693710185       0.01073526289330995      0.005442654527867342     0.0024808017647945228
0.43279456049658926       0.007468188594941868     0.006375135064971515     7956.944638487921        0.016127893829922448     0.007468188594941868     0.006375135064971515
0.577092746648729         0.009029860530776968     0.012038756643668332     7957.208549696928        0.021537191093173286     0.009029860530776968     0.012038756643668332
0.7214075991275072        0.010127670335372638     0.019471666500884968     7957.445802998039        0.026963154683062474     0.010127670335372638     0.019471666500884968
0.8657391179329237        0.010761618008728878     0.02867386463662143      7957.656398391255        0.03240578459959         0.010761618008728878     0.028673864636621426
1.0100873030649784        0.01093170355084569      0.03964535105087771      7957.840335876575        0.03786508084275589      0.01093170355084569      0.03964535105087771
1.1544521545236717        0.010637926961723072     0.05238612574365381      7957.997615454           0.043341043412560114     0.010637926961723072     0.05238612574365381
1.2992524177304507        0.010479544807699933     0.06777391868822048      7958.08017335884         0.049252417730450394     0.010479544807699935     0.06777391868822048
1.4437000805624893        0.010325185809651112     0.08502209503259715      7958.1561189487575       0.05481119167360032      0.010325185809651112     0.08502209503259715
1.5877951430197879        0.010174849967576609     0.10413065477678382      7958.225452223756        0.060017365242009894     0.010174849967576609     0.1041306547767838
1.7315376051023457        0.010028537281476419     0.1250995979207805       7958.288173183835        0.0648709384356791       0.010028537281476419     0.1250995979207805
1.8749274668101632        0.009886247751350547     0.14792892446458716      7958.344281828994        0.06937191125460798      0.009886247751350547     0.14792892446458716
2.017964728143241         0.009747981377198992     0.1726186344082038       7958.393778159233        0.0735202836987965       0.009747981377198992     0.1726186344082038
2.160649389101578         0.009613738159021753     0.19916872775163047      7958.436662174551        0.07731605576824467      0.009613738159021753     0.19916872775163047
10.031887706359964        0.0026050791030315756    4.929706577925366        7959.045029630669        -1.0792234047511509      0.0026050791030315756    4.929706577925366
10.127388212156543        0.002556062945495652     5.036309199659709        7959.048579998513        -1.1226117878434576      0.002556062945495652     5.036309199659709
10.221987466220051        0.0025040291684038964    5.143593723682006        7959.051744205657        -1.1669014226688363      0.0025040291684038964    5.143593723682006
10.31568546855049         0.002448977771756307     5.251560149992256        7959.054522252098        -1.2120923092272864      0.002448977771756307     5.251560149992257
10.408482219147857        0.0023909087555528856    5.360208478590461        7959.056914137836        -1.2581844475188084      0.0023909087555528856    5.360208478590461
10.50037771801215         0.0023298221197936304    5.469538709476618        7959.058919862873        -1.3051778375434016      0.0023298221197936304    5.469538709476619
10.591371965143376        0.002265717864478543     5.579550842650729        7959.060539427209        -1.3530724793010664      0.0022657178644785434    5.579550842650729
10.681464960541527        0.0021985959896076226    5.690244878112792        7959.061772830842        -1.4018683727918029      0.0021985959896076226    5.690244878112793
10.770656704206608        0.0021284564951808693    5.80162081586281         7959.062620073773        -1.4515655180156108      0.0021284564951808693    5.80162081586281
10.858749524087772        0.0020799392584923576    5.91382645666444         7959.081334573495        -1.5023615870233358      0.002079939258492357     5.91382645666444
10.946016486377717        0.0020278904959283046    6.0266026577233545       7959.096113158056        -1.5539835136222813      0.0020278904959283046    6.0266026577233545
11.03245759107644         0.0019723102074887112    6.139949419039557        7959.106955827454        -1.6064312978124469      0.0019723102074887112    6.139949419039558
11.118072838183943        0.001913198393173577     6.253866740613047        7959.113862581692        -1.6597049395938333      0.001913198393173577     6.253866740613047
11.202862227700226        0.0018505550529829026    6.368354622443824        7959.116833420769        -1.7138044389664397      0.0018505550529829026    6.368354622443824
11.28682575962529         0.0017843801869166873    6.483413064531886        7959.115868344683        -1.7687297959302668      0.0017843801869166873    6.483413064531886
11.369963433959128        0.0017146737949749317    6.599042066877236        7959.110967353437        -1.824481010485314       0.0017146737949749315    6.599042066877236
11.452275250701751        0.001641435877157635     6.7152416294798725       7959.10213044703         -1.8810580826315817      0.001641435877157635     6.7152416294798725
9.336820849596606         0.002790792219257418     4.208197966121912        7959.039170590158        -0.8020680392922819      0.002790792219257418     4.208197966121913
9.438877490552882         0.0029028972260211595    4.308712232145734        7959.030681417982        -0.8389002872248973      0.00290289722602116      4.308712232145734
9.540013672941033         0.0029687904154719474    4.410079295771301        7959.025300971793        -0.8766529937256344      0.002968790415471947     4.410079295771302
9.640229396761063         0.002988471787609781     4.512299156998618        7959.023029251592        -0.9153261587944939      0.002988471787609781     4.512299156998618
9.739524662012972         0.002961941342434661     4.615371815827682        7959.023866257379        -0.9549197824314751      0.0029619413424346605    4.615371815827682
9.837899468696758         0.0028891990799465865    4.719297272258496        7959.0278119891545       -0.9954338646365785      0.002889199079946587     4.719297272258496
9.935353816812421         0.002770245000145558     4.824075526291057        7959.0348664469175       -1.0368684054098036      0.0027702450001455582    4.824075526291057
11.533458979289014        0.0015989788959824731    6.832047120020387        7959.115878300904        -1.9387632429332058      0.0015989788959824731    6.832047120020387
11.613873520604914        0.0015519186848510728    6.949310988390865        7959.129060862499        -1.9972375905061983      0.001551918684851073     6.949310988390865
11.69351887464944         0.0015002552437634342    7.067033234591304        7959.1416781318085       -2.0564811253505595      0.0015002552437634342    7.067033234591304
11.7723950414226          0.001443988572719557     7.185213858621706        7959.1537301088365       -2.116493847466289       0.001443988572719557     7.185213858621706
11.85050202092439         0.0013831186717194418    7.3038528604820705       7959.165216793582        -2.177275756853387       0.0013831186717194418    7.3038528604820705
11.927839813154813        0.0013176455407630878    7.422950240172397        7959.176138186043        -2.2388268535118536      0.0013176455407630878    7.422950240172397
12.004408418113867        0.0012475691798504958    7.542505997692686        7959.186494286224        -2.3011471374416885      0.0012475691798504958    7.542505997692686
12.080207835801554        0.0011728895889816652    7.662520133042937        7959.196285094121        -2.364236608642892       0.0011728895889816652    7.662520133042937
12.155027424888067        0.0010132466120288952    7.783040831936032        7959.182329299685        -2.4283059084452683      0.0010132466120288952    7.783040831936032
12.229144381219978        8.711586151792036E-4     7.903961164590793        7959.16929744745         -2.493077841002245       8.711586151792037E-4     7.903961164590793
12.302558704797287        7.466255984325903E-4     8.02528113100722         7959.157189537418        -2.558552406313823       7.466255984325903E-4     8.02528113100722
12.375270395619998        6.39647561789055E-4      8.147000731185315        7959.146005569586        -2.6247296043800024      6.39647561789055E-4      8.147000731185315
12.447279453688106        5.502245052485979E-4     8.269119965125075        7959.135745543957        -2.691609435200782       5.502245052485978E-4     8.269119965125075
12.518585879001613        4.783564288112189E-4     8.391638832826501        7959.126409460528        -2.7591918987761637      4.783564288112189E-4     8.391638832826501
12.58918967156052         4.240433324769181E-4     8.514557334289595        7959.117997319301        -2.827476995106146       4.240433324769181E-4     8.514557334289595
12.659090831364825        3.8728521624569547E-4    8.637875469514354        7959.110509120275        -2.896464724190729       3.8728521624569547E-4    8.637875469514354
14.144322835306415        -0.0018744574246829847   11.682298421698981       7959.234370144896        -4.744566053582475       -0.0018744574246829847   11.682298421698981
14.199159801278126        -0.0019471080179169298   11.811985880754161       7959.225661405121        -4.828617976499651       -0.0019471080179169298   11.811985880754161
14.253503584484237        -0.001996446268825554    11.941843962693024       7959.216744030193        -4.913163082182431       -0.001996446268825554    11.941843962693024
14.307354184924744        -0.002022472177408857    12.071872667515565       7959.207618020108        -4.998201370630811       -0.0020224721774088576   12.071872667515567
14.36071160259965         -0.0020251857436668396   12.202071995221791       7959.198283374868        -5.083732841844794       -0.0020251857436668396   12.202071995221791
14.413575837508953        -0.0020045869675995006   12.332441945811693       7959.188740094474        -5.169757495824379       -0.0020045869675995006   12.332441945811695
14.465946889652658        -0.00196067584920684     12.462982519285278       7959.178988178925        -5.256275332569566       -0.00196067584920684     12.46298251928528
14.517824759030757        -0.0018934523884888586   12.593693715642544       7959.169027628222        -5.343286352080355       -0.0018934523884888588   12.593693715642544
14.569209445643255        -0.001802916585445556    12.724575534883492       7959.1588584423625       -5.430790554356746       -0.001802916585445556    12.724575534883492
13.687083788404792        -0.0010519986260828227   10.651579095869          7959.23432879053         -4.090693989372983       -0.0010519986260828227   10.651579095869
13.746168217291123        -0.0011776984992983759   10.7796556386742         7959.233125059145        -4.1704984493755415      -0.0011776984992983757   10.779655638674198
13.80470134674213         -0.0012968576515452054   10.907950288028983       7959.232266727955        -4.250854208813424       -0.0012968576515452054   10.907950288028982
13.862683176757814        -0.001409476082823311    11.03646304393335        7959.231753796959        -4.331761267686628       -0.001409476082823311    11.03646304393335
13.92011370733818         -0.0015155537931326932   11.165193906387305       7959.231586266158        -4.413219625995153       -0.0015155537931326932   11.165193906387305
13.976992938483223        -0.0016150907824733515   11.294142875390845       7959.231764135551        -4.495229283739001       -0.0016150907824733518   11.294142875390845
14.03332087019294         -0.0017080870508452864   11.423309950943972       7959.232287405139        -4.577790240918171       -0.0017080870508452864   11.423309950943972
14.08909750246734         -0.0017945425982484973   11.552695133046683       7959.233156074921        -4.660902497532661       -0.0017945425982484973   11.552695133046683
12.728143442814368        2.069024870332175E-4     8.76144497020231         7959.110715270128        -2.966301001630076       2.069024870332175E-4     8.76144497020231
12.796547844357388        4.946706080589065E-5     8.885343545744442        7959.109955620248        -3.0367854889759456      4.9467060805890656E-5    8.885343545744442
12.864304035993884        -8.502106243628504E-5    9.009571196140755        7959.108230170634        -3.107918186228338       -8.502106243628502E-5    9.009571196140755
12.931412017723856        -1.9656188269330958E-4   9.13412792139124         7959.105538921288        -3.179699093387253       -1.9656188269330958E-4   9.13412792139124
12.997871789547307        -2.85155399965183E-4     9.259013721495904        7959.101881872208        -3.252128210452691       -2.85155399965183E-4     9.259013721495904
13.063683351464238        -3.508016142519052E-4    9.384228596454747        7959.097259023394        -3.3252055374246523      -3.5080161425190523E-4   9.384228596454747
13.128846703474645        -3.9350052555347636E-4   9.509772546267765        7959.091670374849        -3.3989310743031362      -3.9350052555347636E-4   9.509772546267765
13.193361845578528        -4.1325213386989625E-4   9.63564557093496         7959.085115926569        -3.473304821088143       -4.1325213386989625E-4   9.63564557093496
13.257133934156048        -5.770276720169687E-4    9.761703017734344        7959.095873440954        -3.54842162139951        -5.770276720169687E-4    9.761703017734344
13.320318352526645        -7.168225739867676E-4    9.888027391338692        7959.108886410658        -3.6241260919178027      -7.168225739867676E-4    9.888027391338692
13.382915100690314        -8.326368397792936E-4    10.014618691748003       7959.1241548356775       -3.7004182326430204      -8.326368397792935E-4    10.014618691748003
13.44492417864706         -9.24470469394546E-4     10.141476918962278       7959.141678716014        -3.7772980435751626      -9.24470469394546E-4     10.141476918962278
13.506345586396879        -9.923234628325252E-4    10.268602072981516       7959.161458051667        -3.85476552471423        -9.92323462832525E-4     10.268602072981516
13.567179323939776        -0.001036195820093231    10.395994153805713       7959.183492842638        -3.9328206760602225      -0.001036195820093231    10.395994153805713
13.627425391275747        -0.0010560875411766634   10.523653161434876       7959.207783088925        -4.01146349761314        -0.0010560875411766634   10.523653161434876
14.620220177193143        -0.0016857167597253693   12.85620233008832        7959.164810883724        -5.518668711695746       -0.0016857167597253693   12.85620233008832
14.670675268186166        -0.0015953438443060514   12.988024615721983       7959.1754282326365       -5.607102509591614       -0.0015953438443060517   12.988024615721981
14.720574718622316        -0.001531797839187603    13.120042391784482       7959.190710489097        -5.69609194804435        -0.001531797839187603    13.120042391784482
14.7699185285016          -0.001495078744370023    13.252255658275816       7959.210657653108        -5.785637027053955       -0.001495078744370023    13.252255658275816
14.818706697824014        -0.0014851865598533125   13.384664415195989       7959.235269724669        -5.8757377466204295      -0.0014851865598533122   13.384664415195989
14.866939226589562        -0.0015021212856374706   13.517268662544994       7959.264546703779        -5.9663941067437705      -0.0015021212856374704   13.517268662544993
14.91461611479824         -0.0015458829217224975   13.650068400322837       7959.298488590438        -6.057606107423982       -0.0015458829217224977   13.650068400322835
14.96173736245005         -0.001616471468108394    13.783063628529513       7959.337095384648        -6.149373748661062       -0.001616471468108394    13.783063628529513
16.486886862798897        -0.0033578627745381715   19.18136929553058        7959.516300299826        -10.179779803867767      -0.0033578627745381715   19.18136929553058
16.518786513027248        -0.003374399160421675    19.31728882013711        7959.525742539983        -10.286769042528306      -0.0033743991604216744   19.317288820137115
16.550531384501188        -0.003393212691608104    19.45322524431028        7959.535466788026        -10.393913059943255      -0.003393212691608104    19.45322524431028
16.582121477220724        -0.003414303368097459    19.589178568050073       7959.545473043952        -10.501211856112606      -0.003414303368097459    19.589178568050073
16.61355679118585         -0.0034376711898897404   19.7251487913565         7959.5557613077635       -10.608665431036366      -0.0034376711898897404   19.7251487913565
16.644837326396576        -0.003463316156984948    19.861135914229557       7959.56633157946         -10.71627378471453       -0.003463316156984948    19.861135914229557
16.675963082852892        -0.0034912382693830816   19.997139936669242       7959.577183859041        -10.824036917147101      -0.0034912382693830816   19.997139936669242
16.706934060554804        -0.003521437527084142    20.13316085867556        7959.588318146508        -10.93195482833408       -0.0035214375270841416   20.133160858675563
16.73775025950231         -0.0035539139300881273   20.269198680248508       7959.599734441858        -11.040027518275464      -0.0035539139300881273   20.269198680248508
15.008028307982201        -0.0016914888962780484   13.916175047208444       7959.3273767129          -6.241971692017802       -0.0016914888962780484   13.916175047208446
15.053830313288527        -0.0017634020697192328   14.049417760534325       7959.314403987714        -6.335058575600364       -0.0017634020697192328   14.049417760534322
15.099143378369028        -0.0018322109884319467   14.182791768507144       7959.298177209091        -6.428634399408751       -0.0018322109884319469   14.182791768507144
15.143967503223706        -0.0018979156524161903   14.316297071126911       7959.278696377029        -6.522699163442961       -0.0018979156524161903   14.316297071126911
15.188302687852563        -0.001960516061671964    14.449933668393621       7959.255961491529        -6.617252867702994       -0.001960516061671964    14.449933668393621
15.232148932255596        -0.0020200122161992675   14.583701560307277       7959.22997255259         -6.712295512188851       -0.002020012216199267    14.583701560307277
15.275506236432804        -0.0020764041159981      14.717600746867875       7959.200729560213        -6.807827096900531       -0.0020764041159981005   14.717600746867877
15.318374600384189        -0.002129691761068463    14.851631228075423       7959.168232514399        -6.903847621838034       -0.002129691761068463    14.851631228075423
15.944886373034366        -0.0027342394542894926   17.00955084078483        7959.244337624983        -8.499558071410071       -0.0027342394542894926   17.00955084078483
15.980764853104331        -0.0027631168037852887   17.144987392443852       7959.260098357781        -8.602568480228998       -0.0027631168037852883   17.144987392443852
16.0163654026234          -0.002794550619195614    17.280472451707197       7959.274495403524        -8.705856819598818       -0.002794550619195614    17.280472451707194
16.05168802159157         -0.0028285409005204694   17.416006018574862       7959.287528762206        -8.809423089519537       -0.002828540900520469    17.416006018574862