% Model:              16-12-8--150%--10-10-10.mph
% Version:            COMSOL 6.1.0.252
% Date:               Sep 6 2024, 16:37
% Dimension:          3
% Nodes:              217
% Expressions:        4
% Description:        线
% x                       y                        z                        磁标势                      u                        v                        w
2.3093460834633843        0.010393038365095766     0.25342767306895947      8754.371091027078        0.08712386124116273      0.010393038365095766     0.25342767306895947
2.4510583440291125        0.010218424440893884     0.2874972369099134       8754.430313458159        0.08994723291800182      0.010218424440893884     0.2874972369099134
2.5921952514909488        0.010049295994006068     0.32339400638809945      8754.484788867581        0.09219525149094876      0.010049295994006068     0.32339400638809945
2.7327568058488922        0.009885653024432317     0.3611179815035177       8754.534517255352        0.09386791696000354      0.009885653024432315     0.3611179815035177
2.872743007102944         0.009727495532172632     0.4006691622561681       8754.579498621464        0.0949652293251662       0.009727495532172632     0.4006691622561681
3.0121538552531035        0.009574823517227013     0.4420475486460507       8754.619732965923        0.09548718858643669      0.009574823517227013     0.44204754864605067
3.150989350299371         0.00942763697959546      0.48525314067316544      8754.655220288725        0.09543379474381503      0.00942763697959546      0.48525314067316544
3.289249492241746         0.009285935919277974     0.5302859383375125       8754.685960589875        0.09480504779730121      0.009285935919277974     0.5302859383375125
3.426934281080229         0.009149720336274553     0.5771459416390915       8754.711953869368        0.09360094774689526      0.009149720336274553     0.5771459416390915
8.25613104425778          0.0028986871087103546    3.6385513048985794       8754.95850478087         -0.632757844631109       0.0028986871087103546    3.6385513048985794
8.359122573416156         0.002764675447941232     3.7375864813787882       8754.96412216406         -0.6686552043616206      0.002764675447941232     3.7375864813787882
8.461263856261146         0.0026628394476332392    3.837427456158716        8754.968143987482        -0.7054028104055218      0.0026628394476332392    3.837427456158716
8.562554892792742         0.002593179107786374     3.9380742292383624       8754.970570251138        -0.7430006627628126      0.002593179107786374     3.9380742292383624
8.662995683010951         0.002555694428400638     4.039526800617728        8754.971400955028        -0.7814487614334928      0.002555694428400638     4.039526800617728
8.76258622691577          0.002550385409476031     4.141785170296814        8754.970636099151        -0.8207471064175628      0.002550385409476031     4.141785170296813
8.8613265245072           0.0025772520510125526    4.244849338275616        8754.968275683508        -0.8608956977150222      0.0025772520510125526    4.244849338275616
8.95921657578524          0.002636294353010203     4.348719304554138        8754.964319708099        -0.9018945353258712      0.002636294353010203     4.348719304554138
9.05625638074989          0.0027275123154689826    4.453395069132379        8754.958768172923        -0.9437436192501096      0.0027275123154689826    4.453395069132379
3.563546963071109         0.009058072902356308     0.6263169745377515       8754.71632316985         0.09132474084888675      0.009058072902356308     0.6263169745377514
3.6994546557924943        0.008945197345362128     0.677090897052378        8754.718542408315        0.08834354468138343      0.008945197345362128     0.6770908970523779
3.8346573592443853        0.008811093665292015     0.729467709182971        8754.718611584756        0.08465735924438532      0.008811093665292011     0.7294677091829711
3.9691550734267813        0.008655761862145964     0.7834474109295306       8754.716530699177        0.0802661845378924       0.008655761862145964     0.7834474109295306
4.102947798339683         0.008479201935923981     0.8390300022920567       8754.712299751578        0.0751700205619047       0.008479201935923981     0.8390300022920567
4.236035533983089         0.008281413886626064     0.8962154832705493       8754.705918741958        0.06936886731642217      0.008281413886626064     0.8962154832705493
4.368418280357            0.008062397714252208     0.9550038538650085       8754.697387670316        0.06286272480144484      0.008062397714252208     0.9550038538650086
4.500096037461417         0.007822153418802423     1.0153951140754343       8754.686706536655        0.05565159301697271      0.007822153418802423     1.0153951140754343
4.6306064068748505        0.0076924183745842615    1.0778457961286838       8754.718182549459        0.047273073541516615     0.0076924183745842615    1.0778457961286838
4.760324950855225         0.007554403063180201     1.1416745669883208       8754.747996557968        0.038102728633002673     0.007554403063180201     1.1416745669883208
4.889251669402543         0.00740810748459024      1.2068814266543446       8754.77614856218         0.028140558291430893     0.00740810748459024      1.2068814266543446
5.017386562516802         0.00725353163881438      1.2734663751267556       8754.802638562094        0.017386562516801266     0.00725353163881438      1.2734663751267556
5.144729630198004         0.007090675525852621     1.341429412405554        8754.827466557714        0.005840741309113797     0.007090675525852621     1.341429412405554
5.271280872446146         0.006919539145704965     1.4107705384907394       8754.850632549034        -0.0064969053316315155   0.006919539145704965     1.4107705384907392
5.3970402892612315        0.006740122498371406     1.4814897533823117       8754.87213653606         -0.019626377405434672    0.006740122498371407     1.481489753382312
5.52200788064326          0.00655242558385195      1.5535870570802717       8754.891978518788        -0.03354767491229567     0.00655242558385195      1.5535870570802717
7.400760854024758         0.004265795796331084     2.8769098678623566       8754.778483295087        -0.3770169237530226      0.004265795796331084     2.8769098678623566
7.5106599561854726        0.004102045216177387     2.968877192441253        8754.811348568976        -0.40600671048119624     0.004102045216177387     2.968877192441253
7.619708250237162         0.003936255205795435     3.0617696184631864       8754.84125310339         -0.4358473053183947      0.003936255205795435     3.0617696184631864
7.727905736179829         0.003768425765185227     3.155587145928158        8754.868196898326        -0.4665387082646182      0.003768425765185227     3.155587145928158
7.8352524140134685        0.003598556894346764     3.2503297748361666       8754.892179953787        -0.4980809193198665      0.003598556894346764     3.2503297748361666
7.941748283738083         0.003426648593280045     3.3459975051872135       8754.913202269772        -0.5304739384841397      0.0034266485932800445    3.3459975051872135
8.047393345353672         0.0032527008619850704    3.4425903369812976       8754.931263846282        -0.5637177657574378      0.0032527008619850704    3.4425903369812976
8.15218759886024          0.0030767137004618405    3.5401082702184192       8754.946364683314        -0.597812401139761       0.0030767137004618405    3.5401082702184197
5.645842162108112         0.006411373778222389     1.6275008780870406       8754.885021449543        -0.0486022823363325      0.00641137377822239      1.6275008780870408
5.768842305620526         0.0062711302947541896    1.7026009342100727       8754.876559442873        -0.06449102771280789     0.00627113029475419      1.7026009342100727
5.891008311180501         0.0061316951334473525    1.7788872254493668       8754.866592498773        -0.08121391104172182     0.0061316951334473525    1.7788872254493673
6.012340178788038         0.005993068294301875     1.8563597518049242       8754.855120617245        -0.0987709323230743      0.005993068294301875     1.8563597518049242
6.132837908443135         0.00585524977731776      1.935018513276744        8754.842143798289        -0.11716209155686533     0.00585524977731776      1.935018513276744
6.2525015001457955        0.005718239582495007     2.0148635098648264       8754.827662041904        -0.13638738874309492     0.005718239582495007     2.0148635098648264
6.371330953896016         0.005582037709833614     2.0958947415691718       8754.811675348092        -0.15644682388176304     0.005582037709833614     2.0958947415691718
6.489326269693799         0.005446644159333584     2.1781122083897793       8754.794183716851        -0.1773403969728697      0.005446644159333584     2.1781122083897793
6.606152653154696         0.00520955631350538      2.261772942885409        8754.80129322342         -0.19940290240085973     0.00520955631350538      2.261772942885409
6.722151305067159         0.004998034696378002     2.3464876696491657       8754.80581071305         -0.22229313937728662     0.004998034696378002     2.3464876696491657
6.837322225431185         0.004812079307951449     2.4322563886810475       8754.807736185738        -0.24601110790215042     0.004812079307951449     2.4322563886810475
6.951665414246772         0.004651690148225724     2.519079099981057        8754.807069641489        -0.2705568079754511      0.004651690148225724     2.519079099981057
7.065180871513924         0.004516867217200825     2.606955803549192        8754.803811080299        -0.29593023959718867     0.004516867217200825     2.606955803549192
7.177868597232639         0.004407610514876752     2.6958864993854537       8754.797960502168        -0.32213140276736313     0.004407610514876752     2.695886499385454
7.289728591402917         0.004323920041253504     2.785871187489842        8754.789517907098        -0.3491602974859744      0.004323920041253504     2.785871187489842
0                         0                        0                        8751.842333110475        0                        0                        0
0.1448454372127694        0.0032732467212485306    4.5959395008258834E-4    8752.195284202911        0.005956548323880436     0.0032732467212485306    4.595939500825888E-4
0.28969593605164307       0.006029831050550238     0.0028805063245821516    8752.520582043093        0.0119181582738652       0.006029831050550238     0.0028805063245821516
0.43455149651662117       0.008269752987905122     0.00726273712349869      8752.818226631021        0.017884829849954292     0.008269752987905122     0.00726273712349869
0.5794121186077035        0.009993012533313183     0.013606286346832202     8753.088217966697        0.023856563052147707     0.009993012533313183     0.013606286346832202
0.7242778023248901        0.01119960968677442      0.02191115399458269      8753.330556050118        0.029833357880445454     0.01119960968677442      0.02191115399458269
0.8691485476681812        0.011889544448288832     0.03217734006675016      8753.545240881285        0.03581521433484753      0.011889544448288832     0.03217734006675015
1.0140243546375765        0.012062816817856422     0.04440484456333459      8753.732272460198        0.041802132415353924     0.012062816817856422     0.04440484456333459
1.158905223233076         0.011719426795477189     0.058593667484336004     8753.891650786858        0.04779411212196465      0.011719426795477189     0.058593667484336004
1.304211673948404         0.011541617248571105     0.0758046728203318       8753.97440465171         0.05421167394840362      0.011541617248571105     0.0758046728203318
1.4490891694675776        0.011367239413981708     0.09505660540263677      8754.0506374209          0.06020028057868852      0.011367239413981708     0.09505660540263677
1.5935377097905974        0.011196293291708998     0.11634946523125093      8754.120349094423        0.06575993201281936      0.011196293291708998     0.11634946523125093
1.7375572949174627        0.011028778881752977     0.1396832523061743       8754.183539672284        0.07089062825079616      0.011028778881752977     0.1396832523061743
1.8811479248481744        0.010864696184113643     0.1650579666274068       8754.240209154479        0.0755923692926189       0.010864696184113643     0.16505796662740682
2.0243095995827316        0.010704045198790996     0.19247360819494852      8754.29035754101         0.07986515513828756      0.010704045198790996     0.19247360819494852
2.167042319121135         0.010546825925785038     0.22193017700879938      8754.333984831876        0.08370898578780217      0.010546825925785038     0.22193017700879938
9.801678457589812         0.0026733248866787607    5.324205489063488        8754.95101824315         -1.3094326535213001      0.0026733248866787607    5.324205489063488
9.890197679575992         0.0026291971650089126    5.4368366037270635       8754.954604495702        -1.3598023204240093      0.002629197165008913     5.436836603727063
9.977751157086038         0.0025813856553809217    5.550098500381711        8754.9578034813          -1.4111377318028493      0.0025813856553809217    5.550098500381711
10.064338890119958        0.0025298903577947868    5.663991179027434        8754.960615199943        -1.4634388876578202      0.0025298903577947863    5.663991179027434
10.149960878677744        0.0024747112722505087    5.778514639664229        8754.963039651631        -1.5167057879889216      0.0024747112722505087    5.778514639664229
10.2346171227594          0.0024158483987480875    5.893668882292097        8754.965076836364        -1.570938432796154       0.002415848398748087     5.893668882292097
10.318307622364927        0.0023533017372875226    6.009453906911039        8754.966726754143        -1.6261368220795174      0.0023533017372875226    6.00945390691104
10.40103237749432         0.002287071287868814     6.125869713521055        8754.967989404966        -1.6823009558390114      0.002287071287868814     6.1258697135210545
10.482791388147584        0.0022171570504919626    6.242916302122143        8754.968864788834        -1.7394308340746363      0.0022171570504919626    6.242916302122143
10.56335941128583         0.0021731078815737685    6.3607406127865485       8754.989128193187        -1.7977516998252787      0.0021731078815737685    6.360740612786549
10.64305447772279         0.002125176254399547     6.4790824965054155       8755.005125158805        -1.8569455222772075      0.002125176254399547     6.4790824965054155
10.721876587458464        0.0020733621689692987    6.597941953278746        8755.016855685682        -1.9170123014304237      0.0020733621689692987    6.597941953278746
10.79982574049285         0.002017665625283024     6.71731898310654         8755.024319773825        -1.9779520372849266      0.002017665625283024     6.71731898310654
10.87690193682595         0.001958086623340722     6.8372135859887955       8755.027517423232        -2.0397647298407167      0.001958086623340722     6.8372135859887955
10.953105176457763        0.0018946251631423929    6.957625761925514        8755.0264486339          -2.1024503790977938      0.001894625163142393     6.957625761925514
11.028435459388287        0.0018272812446880377    7.078555510916695        8755.021113405834        -2.1660089850561572      0.0018272812446880377    7.078555510916695
11.102892785617525        0.0017560548679776552    7.20000283296234         8755.01151173903         -2.230440547715808       0.0017560548679776552    7.20000283296234
9.152952822211127         0.0028947033541525005    4.559394934376711        8754.945928831517        -0.9859360666777618      0.0028947033541525005    4.559394934376711
9.248643925999152         0.003012190259326791     4.666209495977346        8754.936481090166        -1.0291338517786273      0.003012190259326791     4.666209495977346
9.343329692113963         0.0030799730309918542    4.773838753934282        8754.930424948867        -1.0733369745527062      0.003079973030991854     4.77383875393428
9.43701012055556          0.00309805166914769      4.882282708247518        8754.92776040762         -1.1185454349999984      0.00309805166914769      4.882282708247518
9.529685211323942         0.0030664261737942985    4.9915413589170585       8754.928487466424        -1.164759233120504       0.0030664261737942985    4.991541358917058
9.621354964419112         0.00298509654493168      5.101614705942899        8754.93260612528         -1.2119783689142225      0.0029850965449316797    5.101614705942899
9.71201937984107          0.002854062782559834     5.212502749325043        8754.940116384189        -1.2602028423811547      0.002854062782559834     5.212502749325043
11.176154311754308        0.001720010065044499     7.321983832290894        8755.026302461441        -2.2960679104679125      0.001720010065044499     7.321983832290894
11.24861472141555         0.0016791185888842825    7.444368579275954        8755.040527141944        -2.36249638969556        0.0016791185888842825    7.444368579275954
11.320274014601248        0.0016333804394970054    7.56715707391752         8755.054185780538        -2.4297259853987514      0.0016333804394970054    7.56715707391752
11.391132191311403        0.0015827956168826681    7.690349316215592        8755.067278377224        -2.497756697577486       0.0015827956168826681    7.690349316215592
11.461189251546013        0.0015273641210412706    7.8139453061701705       8755.079804932002        -2.566588526231764       0.0015273641210412706    7.8139453061701705
11.53044519530508         0.0014670859519728126    7.937945043781255        8755.091765444871        -2.636221471361585       0.0014670859519728126    7.937945043781253
11.598900022588607        0.0014019611096772943    8.062348529048844        8755.103159915832        -2.7066555329669493      0.0014019611096772943    8.062348529048844
11.66655373339659         0.0013319895941547157    8.187155761972939        8755.113988344885        -2.777890711047857       0.0013319895941547157    8.187155761972939
11.733183741385327        0.001170291426939286     8.312404246557128        8755.09833594522         -2.8501495919480067      0.0011702914269392857    8.312404246557126
11.799089646953298        0.001027561139438394     8.438001435387413        8755.083730204036        -2.923132575268924       0.001027561139438394     8.438001435387413
11.864271450100503        9.037987316520402E-4     8.563947328463799        8755.070171121333        -2.9968396610106076      9.037987316520402E-4     8.563947328463799
11.92872915082694         7.990042035802243E-4     8.690241925786284        8755.05765869711         -3.0712708491730583      7.990042035802243E-4     8.690241925786284
11.992462749132612        7.131775552229462E-4     8.81688522735487         8755.046192931366        -3.146426139756276       7.131775552229462E-4     8.81688522735487
12.055472245017516        6.463187865802061E-4     8.943877233169555        8755.0357738241          -3.2223055327602608      6.463187865802062E-4     8.943877233169554
12.117757638481654        5.984278976520042E-4     9.07121794323034         8755.026401375317        -3.298909028185012       5.984278976520042E-4     9.07121794323034
12.179318929525024        5.695048884383401E-4     9.198907357537225        8755.018075585012        -3.37623662603053        5.695048884383401E-4     9.198907357537225
13.462237188167604        -0.0015310882234455046   12.333406049063635       8755.150198094056        -5.426651700721285       -0.0015310882234455046   12.333406049063635
13.508651909514132        -0.0015938156749882783   12.466295905490725       8755.140354290656        -5.519125868263646       -0.0015938156749882783   12.466295905490725
13.554580952600519        -0.0016334232807982021   12.599318157485683       8755.13027817309         -5.612085714066148       -0.0016334232807982023   12.599318157485683
13.600024317426763        -0.001649911040875277    12.732472805048516       8755.119969741358        -5.705531238128792       -0.001649911040875277    12.732472805048516
13.644982003992869        -0.0016432789552195016   12.86575984817922        8755.10942899546         -5.7994624404515775      -0.0016432789552195016   12.86575984817922
13.689454012298832        -0.001613527023830877    12.999179286877796       8755.098655935395        -5.893879321034503       -0.0016135270238308767   12.999179286877796
13.733440342344652        -0.0015606552467094022   13.132731121144245       8755.087650561165        -5.98878187987757        -0.0015606552467094025   13.132731121144245
13.776940994130333        -0.0014846636238550783   13.266415350978562       8755.076412872768        -6.08417011698078        -0.0014846636238550783   13.266415350978562
13.81995596765587         -0.0013855521552679046   13.400231976380752       8755.064942870205        -6.18004403234413        -0.0013855521552679046   13.400231976380752
13.072574384578058        -7.754335080558812E-4    11.275590195673564       8755.151668124328        -4.705203393199717       -7.754335080558812E-4    11.275590195673564
13.123206540434525        -8.951376426624926E-4    11.407203381109689       8755.15020010693         -4.793460126232141       -8.951376426624926E-4    11.407203381109689
13.173288894745912        -0.0010076282643597017   11.538991936899421       8755.149099021992        -4.882266660809641       -0.0010076282643597017   11.538991936899423
13.222821447512224        -0.001112905373147508    11.670955863042765       8755.148364869516        -4.97162299693222        -0.0011129053731475083   11.670955863042765
13.271804198733456        -0.0012109689690259124   11.803095159539719       8755.147997649501        -5.061529134599877       -0.0012109689690259124   11.803095159539719
13.320237148409612        -0.001301819051994914    11.935409826390282       8755.147997361948        -5.151985073812612       -0.001301819051994914    11.935409826390284
13.368120296540686        -0.0013854556220545132   12.067899863594457       8755.148364006856        -5.242990814570424       -0.0013854556220545132   12.067899863594457
13.415453643126686        -0.00146187867920471     12.200565271152243       8755.149097584224        -5.334546356873315       -0.00146187867920471     12.200565271152241
12.240020356523866        3.882268673608895E-4     9.326778071913918        8755.0181504715          -3.4544240879205765      3.882268673608895E-4     9.326778071913918
12.300061502049155        2.3144656270641863E-4    9.454929238169548        8755.017162355613        -3.5332718312841775      2.3144656270641863E-4    9.454929238169548
12.359442366100888        9.916397447492737E-5     9.58336085630411         8755.015111237342        -3.612779856121333       9.916397447492739E-5     9.583360856304111
12.418162948679068        -8.620897333584195E-6    9.71207292631761         8755.011997116695        -3.6929481624320437      -8.620897333584195E-6    9.71207292631761
12.476223249783692        -9.190805271911612E-5    9.841065448210044        8755.007819993669        -3.7737767502163093      -9.19080527191161E-5     9.841065448210044
12.533623269414761        -1.5069749168166835E-4   9.970338421981413        8755.002579868262        -3.8552656194741295      -1.5069749168166835E-4   9.970338421981412
12.590363007572277        -1.849892142212409E-4    10.099891847631715       8754.996276740478        -3.9374147702055047      -1.8498921422124094E-4   10.099891847631715
12.646442464256236        -1.9478322033783383E-4   10.229725725160955       8754.988910610315        -4.020224202410435       -1.9478322033783383E-4   10.229725725160955
12.701779599505393        -3.560331900002499E-4    10.359682436915023       8755.00060062161         -4.103775956050166       -3.560331900002499E-4    10.359682436915023
12.756525121837713        -4.919492500347631E-4    10.489860962114808       8755.014763398036        -4.187919322606733       -4.919492500347631E-4    10.48986096211481
12.810679031253196        -6.025314004413733E-4    10.62026130076031        8755.03139893959         -4.272654302080138       -6.025314004413733E-4    10.62026130076031
12.864241327751843        -6.877796412200807E-4    10.750883452851529       8755.050507246277        -4.357980894470379       -6.877796412200807E-4    10.750883452851529
12.91721201133365         -7.476939723708852E-4    10.881727418388463       8755.072088318093        -4.443899099777458       -7.476939723708852E-4    10.881727418388463
12.969591081998624        -7.822743938937867E-4    11.012793197371112       8755.096142155042        -4.530408918001374       -7.822743938937868E-4    11.012793197371112
13.021378539746761        -7.915209057887853E-4    11.14408078979948        8755.12266875712         -4.617510349142127       -7.915209057887854E-4    11.14408078979948
13.862567535962869        -0.001261883079083036    13.534740852192327       8755.071298865645        -6.276321352926021       -0.0012618830790830358   13.534740852192327
13.904640305380966        -0.0011642066760561578   13.669401619538782       8755.082772635413        -6.373137472396815       -0.0011642066760561575   13.66940161953878
13.946174275910158        -0.0010925229461872699   13.804214278420115       8755.099364179508        -6.470492390756508       -0.0010925229461872699   13.804214278420117
13.987169447550452        -0.0010468318894763721   13.939178828836333       8755.121073497934        -6.568386108005103       -0.0010468318894763721   13.939178828836333
14.027625820301845        -0.0010271335059234652   14.07429527078743        8755.147900590688        -6.666818624142598       -0.0010271335059234652   14.07429527078743
14.067543394164339        -0.0010334277955285484   14.20956360427341        8755.179845457767        -6.765789939168996       -0.0010334277955285484   14.209563604273407
14.10692216913793         -0.0010657147582916221   14.344983829294266       8755.216908099177        -6.865300053084294       -0.0010657147582916221   14.344983829294266
14.14576214522262         -0.0011239943942126863   14.480555945850005       8755.259088514915        -6.965348965888492       -0.0011239943942126863   14.480555945850005
15.357427360419054        -0.0022066200042791325   19.95596665464436        8755.428770229359        -11.30923930624761       -0.0022066200042791325   19.95596665464436
15.38188556658677         -0.0022048064097001338   20.09340221890824        8755.43745036902         -11.423669988968783      -0.0022048064097001338   20.09340221890824
15.406201178116119        -0.0022050294722293076   20.230845379472083       8755.44625292195         -11.53824326632832       -0.002205029472229307    20.230845379472083
15.430374195007106        -0.002207289191866654    20.3682961363359         8755.455177888152        -11.652959138326223      -0.0022072891918666535   20.368296136335896
15.454404617259728        -0.002211585568612173    20.50575448949968        8755.464225267622        -11.76781760496249       -0.002211585568612173    20.50575448949968
15.478292444873986        -0.0022179186024658642   20.643220438963432       8755.47339506036         -11.882818666237123      -0.0022179186024658642   20.64322043896343
15.502037677849877        -0.002226288293427728    20.78069398472715        8755.482687266369        -11.99796232215012       -0.002226288293427728    20.780693984727154
15.525640316187403        -0.002236694641497765    20.918175126790842       8755.492101885648        -12.113248572701481      -0.002236694641497765    20.918175126790842
15.549100359886562        -0.0022491376466759745   21.055663865154504       8755.501638918195        -12.228677417891209      -0.0022491376466759745   21.055663865154504
14.18380198954361         -0.0011852185218117494   14.616181546940913       8755.248118907624        -7.066198010456392       -0.0011852185218117494   14.616181546940913
14.221373917493183        -0.001243288693895647    14.7519018141865         8755.233537564472        -7.167514971395705       -0.001243288693895647    14.7519018141865
14.258477929071349        -0.00129820491046438     14.887716747586767       8755.21534448546         -7.26929984870643        -0.00129820491046438     14.887716747586767
14.295114024278101        -0.0013499671715179475   15.023626347141716       8755.193539670585        -7.371552642388567       -0.0013499671715179475   15.023626347141716
14.331282203113442        -0.0013985754770563501   15.159630612851346       8755.168123119847        -7.474273352442116       -0.0013985754770563501   15.159630612851346
14.366982465577369        -0.0014440298270795876   15.295729544715657       8755.139094833248        -7.577461978867077       -0.0014440298270795874   15.295729544715657
14.402214811669886        -0.0014863302215876598   15.431923142734647       8755.106454810788        -7.681118521663449       -0.0014863302215876598   15.431923142734647
14.43697924139099         -0.0015254766605805668   15.56821140690832        8755.070203052466        -7.785242980831234       -0.0015254766605805668   15.56821140690832
14.93683092867915         -0.0018789172427356605   17.757983233406822       8755.146101137183        -9.507613515765287       -0.0018789172427356605   17.757983233406822
14.964984529320322        -0.0018908198206742826   17.89518543808901        8755.162795257873        -9.618348804013007       -0.0018908198206742826   17.89518543808901
14.992878657407896        -0.0019050472886285523   18.032417555845917       8755.17794557347         -9.729343564814318       -0.0019050472886285523   18.03241755584592
15.020513312941882        -0.0019215996465984692   18.169679586677564       8755.191552083974        -9.840597798169226       -0.0019215996465984692   18.16967958667756