% Model:              16-12-8--150%--10-10-10.mph
% Version:            COMSOL 6.1.0.252
% Date:               Sep 6 2024, 16:35
% Dimension:          3
% Nodes:              217
% Expressions:        4
% Description:        线
% x                       y                        z                        磁标势                      u                        v                        w
2.2246781095342776        3.0545991933105194E-4    0.0053406181354690935    795.3576430485516        0.0024558873120554595    3.0545991933105194E-4    0.0053406181354690935
2.363728697367103         3.106675759817951E-4     0.006071234865676836     795.3915735288388        0.0026175862559921384    3.106675759817951E-4     0.006071234865676837
2.502778342223638         3.1630481810881507E-4    0.006846969313459613     795.4232012625409        0.002778342223638404     3.1630481810881507E-4    0.006846969313459613
2.641827044103883         3.223716457121116E-4     0.007667821478817421     795.452526249658         0.002938155214994256     3.223716457121116E-4     0.007667821478817421
2.7808748030078374        3.2886805879168485E-4    0.008533791361750264     795.4795484901904        0.003097025230059694     3.2886805879168485E-4    0.008533791361750264
2.919921618935501         3.357940573475348E-4     0.009444878962258138     795.5042679841378        0.00325495226883472      3.3579405734753475E-4    0.009444878962258138
3.0589674918868752        3.431496413796615E-4     0.010401084280341049     795.5266847315002        0.0034119363313193317    3.4314964137966146E-4    0.010401084280341049
3.198012421861958         3.509348108880649E-4     0.011402407315998989     795.5467987322776        0.00356797741751353      3.509348108880648E-4     0.01140240731599899
3.337056408860751         3.591495658727449E-4     0.012448848069231964     795.56460998647          0.003723075527417316     3.591495658727449E-4     0.012448848069231964
8.897718508670962         0.0010028695465036372    0.08844138499483505      795.8281331642788        0.008829619782072905     0.0010028695465036372    0.08844138499483505
9.036706465312552         0.0010260174682533468    0.09112543050306533      795.8306507628365        0.008928687534772948     0.0010260174682533468    0.09112543050306533
9.175693626090792         0.00105076577335772      0.0938455066162615       795.8331481374271        0.009026959424124445     0.00105076577335772      0.0938455066162615
9.314679991005683         0.0010771144618167564    0.09660161333442356      795.8356252880502        0.009124435450127399     0.0010771144618167566    0.09660161333442356
9.453665560057226         0.001105063533630457     0.09939375065755153      795.838082214706         0.009221115612781808     0.001105063533630457     0.09939375065755153
9.592650333245421         0.001134612988798821     0.1022219185856454       795.8405189173945        0.00931699991208767      0.001134612988798821     0.10222191858564539
9.731634310570266         0.0011657628273218483    0.10508611711870514      795.8429353961158        0.009412088348044991     0.0011657628273218483    0.10508611711870514
9.870617492031766         0.0011985130491995394    0.10798634625673077      795.8453316508696        0.009506380920653765     0.0011985130491995394    0.10798634625673079
10.009599877629913        0.001232863654431894     0.11092260599972233      795.8477076816563        0.009599877629913994     0.001232863654431894     0.11092260599972233
3.476097760298799         3.685624282083089E-4     0.013543085628273905     795.5785399216423        0.0038755380765763195    3.685624282083089E-4     0.013543085628273905
3.6151380004621427        3.7816967652951495E-4    0.014680587416523888     795.5915805528126        0.0040268893510318985    3.7816967652951495E-4    0.014680587416523888
3.754177129350784         3.879713108363632E-4     0.015861353433981918     795.6037318799812        0.004177129350784054     3.879713108363632E-4     0.015861353433981918
3.8932151469647214        3.9796733112885355E-4    0.017085383680647992     795.6149939031477        0.004326258075832785     3.9796733112885355E-4    0.017085383680647992
4.032252053303955         4.08157737406986E-4      0.018352678156522115     795.6253666223124        0.004474275526178092     4.08157737406986E-4      0.018352678156522115
4.171287848368486         4.1854252967076053E-4    0.019663236861604278     795.6348500374752        0.004621181701819974     4.185425296707606E-4     0.019663236861604278
4.310322532158314         4.2912170792017726E-4    0.02101705979589449      795.643444148636         0.004766976602758432     4.2912170792017726E-4    0.02101705979589449
4.449356104673438         4.398952721552361E-4     0.022414146959392745     795.6511489557951        0.004911660228993466     4.398952721552361E-4     0.022414146959392745
4.588387161991664         4.518017697692112E-4     0.02385702434470609      795.6628630641039        0.0050538286583298965    4.518017697692111E-4     0.02385702434470609
4.727417057260088         4.6401982188676083E-4    0.02534116897769997      795.6740095994137        0.005194835037866559     4.6401982188676083E-4    0.025341168977699977
4.866445790478715         4.7654942850788515E-4    0.026866580858374397     795.684588561724         0.005334679367603456     4.7654942850788515E-4    0.026866580858374397
5.005473361647541         4.893905896325842E-4     0.028433259986729357     795.6945999510351        0.005473361647540582     4.893905896325842E-4     0.028433259986729357
5.144499770766568         5.025433052608579E-4     0.030041206362764854     795.7040437673469        0.005610881877677942     5.025433052608579E-4     0.030041206362764857
5.283525017835793         5.160075753927063E-4     0.031690419986480894     795.7129200106594        0.005747240058015534     5.160075753927063E-4     0.031690419986480894
5.42254910285522          5.297834000281295E-4     0.033380900857877475     795.7212286809727        0.005882436188553357     5.297834000281295E-4     0.03338090085787747
5.561572025824847         5.438707791671272E-4     0.03511264897695458      795.7289697782867        0.006016470269291412     5.438707791671272E-4     0.03511264897695458
7.785756208982655         8.283508221691749E-4     0.06824453421702346      795.7850991311037        0.00797843120487526      8.283508221691749E-4     0.06824453421702346
7.924755976197125         8.486310085577483E-4     0.07064043981496732      795.7917106301286        0.008089309530455729     8.486310085577483E-4     0.07064043981496732
8.063754463482042         8.693496675615317E-4     0.07307311705556334      795.7979700591884        0.00819890792648455      8.693496675615317E-4     0.07307311705556334
8.202751670837408         8.905067991805247E-4     0.0755425659388115       795.803877418283         0.008307226392961727     8.905067991805249E-4     0.0755425659388115
8.341747598263222         9.121024034147278E-4     0.07804878646471188      795.8094327074125        0.008414264929887255     9.121024034147278E-4     0.07804878646471188
8.480742245759483         9.341364802641403E-4     0.0805917786332644       795.8146359265768        0.008520023537261138     9.341364802641404E-4     0.0805917786332644
8.619735613326196         9.566090297287629E-4     0.08317154244446912      795.8194870757759        0.008624502215083374     9.566090297287629E-4     0.08317154244446912
8.758727700963354         9.795200518085952E-4     0.085788077898326        795.82398615501          0.008727700963353962     9.795200518085954E-4     0.08578807789832599
5.700593068083383         5.588852512768271E-4     0.036888740140491996     795.7340132759842        0.00614862363893854      5.588852512768271E-4     0.036888740140491996
5.8396128256207565        5.743024458400548E-4     0.038704266239738036     795.7385844288574        0.00627949228742286      5.743024458400548E-4     0.038704266239738036
5.978631298436967         5.901223628568101E-4     0.04055922727469271      795.7426832369063        0.006409076214744375     5.901223628568101E-4     0.0405592272746927
6.117648486532015         6.063450023270932E-4     0.04245362324535601      795.7463097001306        0.006537375420903082     6.063450023270932E-4     0.04245362324535601
6.2566643899059           6.229703642509039E-4     0.04438745415172794      795.7494638185307        0.006664389905898984     6.229703642509039E-4     0.04438745415172794
6.395679008558623         6.399984486282423E-4     0.04636071999380851      795.7521455921062        0.0067901196697320795    6.399984486282423E-4     0.04636071999380851
6.534692342490182         6.574292554591084E-4     0.0483734207715977       795.7543550208574        0.006914564712402368     6.574292554591084E-4     0.0483734207715977
6.6737043917005785        6.752627847435021E-4     0.050425556485095537     795.7560921047842        0.007037725033909849     6.752627847435021E-4     0.050425556485095537
6.812714498487837         6.914265921250912E-4     0.05252006904107151      795.7614729756623        0.00715894293228039      6.914265921250912E-4     0.05252006904107151
6.95172356823881          7.084395987342864E-4     0.05465254150005178      795.7663524200867        0.007279123794365256     7.084395987342863E-4     0.05465254150005178
7.090731600953498         7.263018045710867E-4     0.05682297386203634      795.7707304380573        0.007398267620164445     7.263018045710868E-4     0.05682297386203634
7.229738596631901         7.450132096354931E-4     0.05903136612702518      795.7746070295741        0.007516374409677958     7.450132096354931E-4     0.05903136612702518
7.368744555274017         7.645738139275049E-4     0.06127771829501832      795.7779821946372        0.007633444162905797     7.64573813927505E-4      0.06127771829501832
7.507749476879849         7.849836174471227E-4     0.06356203036601575      795.7808559332465        0.007749476879847961     7.849836174471226E-4     0.06356203036601575
7.646753361449395         8.06242620194346E-4      0.06588430234001746      795.7832282454019        0.007864472560504447     8.06242620194346E-4      0.06588430234001745
0                         0                        0                        793.3855128450348        0                        0                        0
0.1390208746569796        7.355783036314062E-5     5.549186065570123E-7     793.6368204037434        1.3198576809063357E-4    7.355783036314062E-5     5.549186065570189E-7
0.2780445259356798        1.363547199895005E-4     4.409294619005629E-5     793.870144844779         2.66748157901861E-4      1.363547199895005E-4     4.409294619005629E-5
0.41707095383610054       1.883906688790796E-4     1.3061408275049779E-4    794.0854861681418        4.0428716943368217E-4    1.883906688790796E-4     1.3061408275049779E-4
0.5561001583582419        2.2966567703187787E-4    2.6011832828788157E-4    794.2828443738317        5.446028026860972E-4     2.2966567703187787E-4    2.6011832828788157E-4
0.6951321395021038        2.601797444478954E-4     4.3260568280220754E-4    794.4622194618487        6.876950576591059E-4     2.601797444478954E-4     4.3260568280220754E-4
0.8341668972676864        2.799328711271322E-4     6.480761462934758E-4     794.6236114321928        8.335639343527086E-4     2.799328711271322E-4     6.480761462934758E-4
0.9732044316549896        2.889250570695882E-4     9.065297187616863E-4     794.767020284864         9.822094327669052E-4     2.889250570695882E-4     9.065297187616863E-4
1.1122447426640132        2.871563022752634E-4     0.001207966400206839     794.8924460198622        0.0011336315529016953    2.871563022752634E-4     0.001207966400206839
1.2513015856045384        2.866596709183823E-4     0.0015591291484073275    794.9727675527105        0.001301585604538136     2.866596709183823E-4     0.0015591291484073275
1.3903576650931373        2.86958634844031E-4      0.001957554387667043     795.0467542557694        0.0014687762042482281    2.86958634844031E-4      0.001957554387667043
1.5294129811298098        2.880531940522097E-4     0.002403242117985984     795.1144061290394        0.0016352033520319713    2.880531940522097E-4     0.0024032421179859846
1.668467533714556         2.899433485429183E-4     0.002896192339364153     795.1757231725202        0.0018008670478893663    2.899433485429183E-4     0.002896192339364153
1.8075213228473759        2.9262909831615684E-4    0.003436405051801548     795.2307053862119        0.0019657672918204127    2.9262909831615684E-4    0.003436405051801548
1.9465743485282692        2.9611044337192526E-4    0.004023880255298169     795.2793527701142        0.0021299040838251102    2.9611044337192526E-4    0.004023880255298169
2.0856266107572368        3.003873837102237E-4     0.004658617949854018     795.3216653242275        0.0022932774239034595    3.0038738371022364E-4    0.004658617949854018
11.121614810893584        0.0014904652809882358    0.13586442243679794      795.8618041263246        0.01050369978247171      0.0014904652809882358    0.13586442243679794
11.260612739775032        0.0015219515727415416    0.13917574757153164      795.8644084502547        0.010612739775032074     0.0015219515727415416    0.13917574757153164
11.399608455815985        0.0015537075906182861    0.1425270077872127       795.866901056463         0.010719566927095515     0.001553707590618286     0.1425270077872127
11.538601959016438        0.0015857333346184683    0.14591820308384115      795.8692819449492        0.010824181238662026     0.0015857333346184683    0.14591820308384115
11.677593249376397        0.0016180288047420895    0.1493493334614169       795.8715511157135        0.010926582709731613     0.0016180288047420895    0.1493493334614169
11.816582326895857        0.0016505940009891487    0.15282039891994004      795.8737085687558        0.011026771340304272     0.0016505940009891487    0.15282039891994004
11.95556919157482         0.0016834289233596468    0.15633139945941052      795.8757543040763        0.011124747130380004     0.0016834289233596466    0.15633139945941052
12.09455384341329         0.0017165335718535826    0.15988233507982835      795.8776883216747        0.01122051007995881      0.0017165335718535828    0.15988233507982835
12.233536282411261        0.0017499079464709574    0.16347320578119354      795.8795106215512        0.01131406018904069      0.0017499079464709574    0.16347320578119354
12.372516677619544        0.0017844589373013878    0.16710919218345824      795.8831387713853        0.011405566508434597     0.0017844589373013878    0.16710919218345824
12.511495145051914        0.001819239253074851     0.17078270471702067      795.8862868183413        0.011495145051915996     0.001819239253074851     0.1707827047170207
12.650471684708371        0.0018542488937913462    0.1744937433818809       795.8889547624191        0.011582795819484888     0.0018542488937913462    0.1744937433818809
12.789446296588919        0.001889487859450874     0.17824230817803885      795.8911426036187        0.011668518811141271     0.001889487859450874     0.17824230817803885
12.92841898069355         0.0019249561500534339    0.1820283991054945       795.8928503419402        0.01175231402688515      0.0019249561500534339    0.1820283991054945
13.067389737022271        0.0019606537655990266    0.18585201616424793      795.8940779773834        0.01183418146671652      0.0019606537655990266    0.18585201616424796
13.206358565575078        0.001996580706087651     0.18971315935429914      795.8948255099485        0.011914121130635384     0.001996580706087651     0.1897131593542991
13.345325466351975        0.0020327369715193084    0.19361182867564805      795.8950929396354        0.01199213301864174      0.0020327369715193084    0.19361182867564805
10.14860624768055         0.0012683208527046813    0.11389149076516643      795.8479658467767        0.009717358791659346     0.0012683208527046813    0.11389149076516643
10.287611331047561        0.0013028474809908272    0.11690290189895061      795.8486536948865        0.009833553269783088     0.0013028474809908272    0.11690290189895061
10.426615127730955        0.001336443539290332     0.1199568394010749       795.8497712259858        0.009948461064285218     0.001336443539290332     0.1199568394010749
10.565617637730723        0.0013691090276031954    0.12305330327153931      795.8513184400746        0.010062082175165738     0.0013691090276031954    0.12305330327153931
10.704618861046871        0.0014008439459294174    0.1261922935103438       795.8532953371529        0.010174416602424647     0.0014008439459294176    0.1261922935103438
10.843618797679397        0.0014316482942689983    0.1293738101174884       795.8557019172206        0.010285464346061946     0.0014316482942689983    0.12937381011748844
10.982617447628302        0.0014615220726219376    0.13259785309297314      795.858538180278         0.010395225406077634     0.0014615220726219376    0.13259785309297314
13.484288041604552        0.002070017373866855     0.19755224690312706      795.8983335584354        0.012065819382330109     0.002070017373866855     0.19755224690312703
13.62324842209318         0.0021075477835931005    0.20152769432763198      795.9014893148873        0.012137310982071657     0.0021075477835931005    0.20152769432763198
13.762206607817866        0.0021453282006980443    0.205538170949163        795.9045602089913        0.012206607817866378     0.0021453282006980443    0.205538170949163
13.901162598778603        0.0021833586251816866    0.20958367676772         795.9075462407471        0.012273709889714277     0.0021833586251816866    0.20958367676772
14.040116394975392        0.002221639057044028     0.213664211783303        795.910447410155         0.012338617197615353     0.0022216390570440276    0.21366421178330303
14.179067996408238        0.0022601694962850675    0.21777977599591203      795.9132637172148        0.012401329741569605     0.002260169496285067     0.21777977599591203
14.318017403077134        0.0022989499429048052    0.22193036940554706      795.9159951619266        0.012461847521577035     0.0022989499429048057    0.22193036940554706
14.456964614982084        0.002337980396903242     0.22611599201220806      795.9186417442904        0.01252017053763764      0.002337980396903242     0.22611599201220806
14.595909109523317        0.002374324244710197     0.23034006091472975      795.9187066022241        0.012575776189983151     0.0023743242447101976    0.23034006091472975
14.73485202411792         0.0024114921538248117    0.23459706826684223      795.9188404847791        0.012629801895697793     0.0024114921538248117    0.23459706826684223
14.873793358765893        0.002449484124247085     0.2388870140685455       795.9190433919558        0.01268224765478157      0.0024494841242470853    0.2388870140685455
15.012733113467235        0.002488300155977018     0.24320989831983952      795.9193153237538        0.012733113467234476     0.002488300155977018     0.24320989831983952
15.151671288221944        0.00252794024901461      0.2475657210207244       795.9196562801734        0.012782399333056513     0.00252794024901461      0.2475657210207244
15.290607883030026        0.0025684044033598614    0.2519544821712          795.9200662612144        0.012830105252247684     0.0025684044033598614    0.2519544821712
15.429542897891475        0.0026096926190127714    0.25637618177126636      795.9205452668768        0.012876231224807985     0.0026096926190127714    0.25637618177126636
15.568476332806293        0.002651804895973341     0.2608308198209236       795.9210932971608        0.012920777250737418     0.002651804895973341     0.2608308198209236
18.90222508428448         0.003697849750139894     0.37662621840429494      795.9750980491806        0.013336195395591227     0.003697849750139894     0.37662621840429494
19.041106657381224        0.0037448360416409646    0.38178794963836127      795.9757322975423        0.01332887960344613      0.0037448360416409646    0.38178794963836127
19.1799862608342          0.0037931219155656597    0.3869742545900294       795.9764469389688        0.013319594167533118     0.0037931219155656597    0.3869742545900294
19.318863894643407        0.0038427073719139817    0.39218513325929943      795.9772419734605        0.013308339087852184     0.0038427073719139817    0.39218513325929943
19.457739558808846        0.003893592410685928     0.39742058564617133      795.978117401017         0.013295114364403336     0.003893592410685928     0.39742058564617133
19.596613253330517        0.003945777031881499     0.40268061175064507      795.9790732216385        0.013279919997186567     0.003945777031881499     0.40268061175064507
19.735484978208426        0.003999261235500697     0.40796521157272075      795.980109435325         0.013262755986201882     0.003999261235500697     0.4079652115727207
19.874354733442562        0.004054045021543519     0.4132743851123982       795.9812260420763        0.013243622331449276     0.004054045021543519     0.4132743851123982
20.01322251903293         0.0041101283900099655    0.4186081323696776       795.9824230418926        0.013222519032928752     0.0041101283900099655    0.4186081323696776
17.791102660436913        0.003335545148879047     0.33623411227649475      795.9603783036331        0.01332488265913877      0.003335545148879047     0.33623411227649475
17.929999596780483        0.0033792329638075076    0.3411893972239416       795.9618904430829        0.013332930113818755     0.0033792329638075076    0.3411893972239416
18.06889463787759         0.003423377995944295     0.346171461690968        795.963496247888         0.013339082322034904     0.003423377995944295     0.346171461690968
18.207787783728232        0.0034679802452894093    0.35118030567757375      795.9651957180484        0.013343339283787217     0.0034679802452894093    0.3511803056775738
18.34667903433241         0.0035130397118428515    0.35621592918375905      795.9669888535642        0.013345700999075692     0.0035130397118428515    0.35621592918375905
18.485568389690126        0.003558556395604621     0.3612783322095238       795.9688756544354        0.01334616746790033      0.003558556395604621     0.3612783322095239
18.62445584980137         0.0036045302965747174    0.3663675147548681       795.9708561206618        0.013344738690261133     0.003604530296574718     0.36636751475486806
18.763341414666158        0.0036509614147531423    0.37148347681979177      795.9729302522435        0.013341414666158099     0.0036509614147531423    0.37148347681979177
15.707404378394969        0.0026897412251791772    0.2653176198217892       795.9227906485131        0.01295993395052498      0.0026897412251791772    0.26531761982178925
15.846330807338878        0.00272866400888287      0.2698351782906389       795.9243569940884        0.012997474005547741     0.00272866400888287      0.2698351782906389
15.985255619638025        0.0027685732470844188    0.27438349522747274      795.9257923338865        0.013033397415805704     0.0027685732470844188    0.2743834952274728
16.12417881529241         0.0028094689397838235    0.27896257063229074      795.9270966679077        0.013067704181298866     0.0028094689397838235    0.27896257063229074
16.26310039430203         0.0028513510869810845    0.2835724045050928       795.9282699961517        0.01310039430202723      0.0028513510869810845    0.28357240450509275
16.40202035666688         0.002894219688676201     0.28821299684587887      795.9293123186188        0.01313146777799079      0.002894219688676201     0.28821299684587887
16.54093870238697         0.0029380747448691743    0.2928843476546491       795.9302236353088        0.013160924609189557     0.0029380747448691747    0.2928843476546491
16.679855431462293        0.0029829162555600037    0.29758645693140345      795.9310039462217        0.013188764795623522     0.0029829162555600037    0.29758645693140345
16.818767005083398        0.003023402983020759     0.3023179661513055       795.933889345472         0.013211449527837076     0.0030234029830207587    0.3023179661513055
16.957676958704706        0.0030649159631112644    0.3070778889992746       795.9369994291299        0.013232514260258014     0.0030649159631112644    0.3070778889992746
17.096585292326225        0.00310745519583152      0.31186622547531057      795.9403341971949        0.013251958992886342     0.0031074551958315197    0.31186622547531057
17.235492005947947        0.0031510206811815253    0.3166829755794135       795.9438936496676        0.013269783725722054     0.0031510206811815253    0.3166829755794135
17.374397099569876        0.003195612419161281     0.3215281393115834       795.9476777865477        0.013285988458765151     0.003195612419161281     0.3215281393115834
17.513300573192016        0.0032412304097707866    0.3264017166718202       795.9516866078354        0.013300573192015637     0.0032412304097707866    0.3264017166718202
17.65220242681436         0.003287874653010042     0.331303707660124        795.9559201135305        0.01331353792547351      0.0032878746530100415    0.331303707660124
20.152117331850704        0.004168181973825044     0.42397105011058606      795.985713297637         0.013228442961813048     0.004168181973825044     0.42397105011058606
20.29101070871494         0.004225193594015946     0.42936356192289005      795.9894694113148        0.01323293093715874      0.004225193594015947     0.42936356192289005
20.429902649625635        0.0042811632505826746    0.43478566780658934      795.9936913829258        0.013235982958965836     0.004281163250582675     0.43478566780658934
20.56879315458279         0.004336090943525228     0.44023736776168415      795.9983792124705        0.013237599027234334     0.004336090943525228     0.44023736776168415
20.70768222358641         0.0043899766728436075    0.4457186617881744       796.0035328999485        0.013237779141964234     0.0043899766728436075    0.4457186617881744
20.846569856636485        0.004442820438537812     0.45122954988606         796.00915244536          0.013236523303155532     0.004442820438537812     0.45122954988605996
20.98545605373303         0.004494622240607843     0.456770032055341        796.0152378487048        0.013233831510808234     0.004494622240607843     0.456770032055341
21.12434081487603         0.004545382079053698     0.4623401082960175       796.021789109983         0.013229703764922333     0.004545382079053698     0.4623401082960175
26.67750890318402         0.0067518013220729395    0.7044792033230468       796.2782135058404        0.01084223651735337      0.0067518013220729395    0.7044792033230468
26.816286759613426        0.006810635489457956     0.7108811436031863       796.2942996673844        0.010731204057870336     0.006810635489457956     0.7108811436031863
26.955063132260527        0.006869412165781277     0.7172922403746826       796.3121359640111        0.010618687816086088     0.006869412165781277     0.7172922403746826
27.09383802112533         0.006928131351042903     0.7237124936375356       796.3317223957202        0.01050468779200062      0.006928131351042904     0.7237124936375356
27.23261142620783         0.0069867930452428345    0.7301419033917455       796.3530589625123        0.010389203985613934     0.0069867930452428345    0.7301419033917455
27.371383347508033        0.007045397248381071     0.7365804696373122       796.3761456643869        0.010272236396926033     0.007045397248381072     0.7365804696373122
27.510153785025928        0.007103943960457614     0.7430281923742357       796.4009825013441        0.010153785025936916     0.007103943960457614     0.7430281923742356
27.64892273876153         0.007162433181472461     0.7494850716025159       796.4275694733839        0.010033849872646581     0.0071624331814724605    0.7494850716025159
27.787690208714828        0.007220864911425613     0.7559511073221529       796.4559065805064        0.00991243093705503      0.007220864911425613     0.7559511073221529
21.263217334930495        0.004595815492032129     0.4679484101047858       796.0235286036764        0.013217334930494738     0.00459581549203213      0.46794841010478583
21.402091551733577        0.004646578832455855     0.4735831051312952       796.0249321254593        0.013202662844688387     0.004646578832455855     0.4735831051312952
21.54096346528528         0.004697672100324875     0.47924419337554514      796.0259996753316        0.01318568750750328      0.004697672100324876     0.4792441933755453
21.679833075585606        0.004749095295639189     0.48493167483753624      796.0267312532935        0.013166408918939419     0.004749095295639189     0.48493167483753624
21.818700382634553        0.004800848418398798     0.49064554951726813      796.027126859345         0.0131448270789968       0.004800848418398797     0.49064554951726813
21.957565386432123        0.0048529314686037       0.4963858174147409       796.027186493486         0.013120941987675428     0.0048529314686037       0.49638581741474086
22.096428086978307        0.0049053444462538965    0.5021524785299545       796.0269101557167        0.0130947536449753       0.004905344446253896     0.5021524785299545
22.23528848427312         0.004958087351349386     0.507945532862909        796.0262978460369        0.013066262050896414     0.004958087351349386     0.507945532862909
24.456721701583565        0.005839963018098857     0.6038543408162333       796.1026545936651        0.01227725713912299      0.005839963018098857     0.6038543408162333
24.595536728618825        0.005896678694640525     0.6100284990297233       796.1102729584758        0.012203395285495749     0.005896678694640525     0.6100284990297233
24.734349864668456        0.005953392845780374     0.6162186505634392       796.1180904578679        0.012127642446232831     0.005953392845780374     0.6162186505634392