% Model:              16-12-8--150%--10-10-10.mph
% Version:            COMSOL 6.1.0.252
% Date:               Sep 6 2024, 16:36
% Dimension:          3
% Nodes:              217
% Expressions:        4
% Description:        线
% x                       y                        z                        磁标势                      u                        v                        w
2.266674663898396         0.004865255053903972     0.10918495916880082      4774.8745859763885       0.04445244167617437      0.004865255053903972     0.10918495916880082
2.407966815954344         0.004806116376100672     0.12409212289211748      4774.924104272799        0.04685570484323328      0.004806116376100672     0.12409212289211748
2.549132081144943         0.004747778970539757     0.13988851514122835      4774.969700481553        0.04913208114494303      0.004747778970539757     0.13988851514122835
2.6901704594701923        0.004690242837221229     0.15657413591613342      4775.011374602648        0.0512815705813036       0.004690242837221228     0.1565741359161334
2.8310819509300926        0.004633507976145085     0.17414898521683264      4775.049126636087        0.053304173152315        0.004633507976145085     0.17414898521683264
2.9718665555246435        0.004577574387311326     0.1926130630433261       4775.082956581867        0.055199888857977226     0.004577574387311326     0.1926130630433261
3.112524273253846         0.004522442070719953     0.21196636939561372      4775.11286443999         0.05696871769829027      0.004522442070719953     0.21196636939561372
3.2530551041176987        0.004468111026370966     0.23220890427369556      4775.138850210455        0.05861065967325415      0.004468111026370966     0.23220890427369556
3.3934590481162026        0.004414581254264363     0.2533406676775716       4775.160913893262        0.06012571478286885      0.004414581254264363     0.2533406676775716
8.841658263111201         0.0017224716507331804    1.753335210382242        4775.408538278177        -0.04723062577768758     0.0017224716507331804    1.753335210382242
8.972955114465256         0.0016458953691768658    1.8052606196119412       4775.411051563513        -0.05482266331252203     0.0016458953691768658    1.8052606196119405
9.103989025643848         0.0015905940608015633    1.857815576153736        4775.413154906348        -0.0626776410228195      0.0015905940608015633    1.857815576153736
9.234759996646977         0.0015565677256072726    1.911000080007628        4775.414848306682        -0.07079555890857997     0.0015565677256072726    1.9110000800076279
9.365268027474642         0.001543816363593994     1.9648141311736163       4775.416131764514        -0.07917641696980346     0.001543816363593994     1.9648141311736163
9.495513118126846         0.0015523399747617277    2.0192577296517014       4775.4170052798445       -0.08782021520648994     0.0015523399747617275    2.019257729651701
9.625495268603583         0.001582138559110473     2.074330875441883        4775.417468852674        -0.09672695361863944     0.001582138559110473     2.074330875441883
9.755214478904858         0.0016332121166402307    2.130033568544161        4775.417522483002        -0.10589663220625194     0.0016332121166402307    2.130033568544161
9.884670749030672         0.0017055606473510001    2.186365808958536        4775.417166170829        -0.11532925096932745     0.0017055606473510001    2.186365808958536
3.53363796094861          0.00437464766905994      0.2754914877655278       4775.169010970651        0.06141573872638737      0.00437464766905994      0.2754914877655278
3.6736520545748936        0.004328336428846562     0.298478490960979        4775.17556995681         0.06254094346378247      0.004328336428846562     0.298478490960979
3.8135013289950543        0.004275647533624232     0.32230167726392506      4775.180590851739        0.06350132899505417      0.004275647533624232     0.32230167726392506
3.9531857842090914        0.004216580983392947     0.3469610466743661       4775.184073655438        0.06429689532020245      0.004216580983392947     0.3469610466743661
4.092705420217006         0.004151136778152709     0.3724565991923021       4775.186018367906        0.06492764243922731      0.004151136778152709     0.3724565991923021
4.232060237018795         0.004079314917903516     0.39878833481773307      4775.186424989145        0.06539357035212878      0.004079314917903517     0.39878833481773307
4.371250234614463         0.00400111540264537      0.42595625355065897      4775.185293519154        0.06569467905890683      0.00400111540264537      0.42595625355065897
4.510275413004006         0.00391653823237827      0.45396035539107976      4775.182623957932        0.06583096855956147      0.00391653823237827      0.45396035539107976
4.649048442883534         0.003859050659551126     0.4829387294422646       4775.205602950211        0.0657151095502011       0.003859050659551126     0.4829387294422646
4.787624375837598         0.0037990120697651854    0.5126971355798335       4775.227177609874        0.06540215361537478      0.0037990120697651854    0.5126971355798335
4.926003211866193         0.0037364224630204476    0.5432355738037868       4775.247347936921        0.06489210075508257      0.0037364224630204476    0.5432355738037868
5.064184950969325         0.003671281839316913     0.5745540441141241       4775.266113931352        0.06418495096932442      0.003671281839316913     0.5745540441141241
5.202169593146989         0.0036035901986545805    0.6066525465108458       4775.283475593168        0.06328070425810034      0.0036035901986545805    0.6066525465108458
5.339957138399188         0.0035333475410334516    0.6395310809939514       4775.299432922368        0.06217936062141034      0.0035333475410334516    0.6395310809939514
5.477547586725922         0.0034605538664535247    0.6731896475634412       4775.313985918953        0.06088092005925441      0.0034605538664535247    0.6731896475634412
5.614940938127188         0.0033852091749148015    0.7076282462193154       4775.327134582922        0.05938538257163256      0.0033852091749148015    0.7076282462193154
7.7818041626669405        0.0023421350686409874    1.3606072029010718       4775.290131469289        0.004026384889160211     0.0023421350686409874    1.3606072029010718
7.915162625998427         0.002266694567191897     1.4074081704892152       4775.310670591596        -0.0015040406682430526   0.002266694567191897     1.4074081704892152
8.048270603393926         0.002190677658374411     1.4548634333193593       4775.329570207846        -0.007284952161632804    0.002190677658374411     1.4548634333193593
8.181128094853436         0.0021140843421885284    1.5029729913915042       4775.346830318042        -0.013316349591009044    0.0021140843421885284    1.5029729913915042
8.313735100376963         0.0020369146186342505    1.55173684470565         4775.36245092218         -0.019598232956371774    0.0020369146186342505    1.55173684470565
8.446091619964502         0.0019591684877115767    1.6011549932617966       4775.376432020263        -0.02613060225772099     0.0019591684877115767    1.6011549932617968
8.578197653616057         0.001880845949420507     1.6512274370599442       4775.388773612291        -0.0329134574950567      0.001880845949420507     1.6512274370599442
8.710053201331622         0.0018019470037610417    1.7019541761000927       4775.399475698261        -0.03994679866837889     0.0018019470037610417    1.7019541761000927
5.752080872349306         0.003322502479466282     0.7429885233876653       4775.326437874861        0.057636427904861655     0.003322502479466282     0.7429885233876653
5.888999313577006         0.003259937453506232     0.7790778000709561       4775.324309844894        0.05566598024367182      0.0032599374535062326    0.7790778000709561
6.025696261810285         0.003197514097034653     0.8158960762691878       4775.320750493022        0.05347403958806306      0.003197514097034653     0.8158960762691878
6.162171717049148         0.0031352324100515435    0.8534433519823603       4775.315759819244        0.05106060593803536      0.0031352324100515435    0.8534433519823603
6.29842567929359          0.0030730923925569036    0.8917196272104737       4775.30933782356         0.04842567929358874      0.0030730923925569036    0.8917196272104737
6.434458148543614         0.003011094044550733     0.9307249019535279       4775.301484505971        0.0455692596547232       0.003011094044550734     0.9307249019535279
6.570269124799218         0.0029492373660330333    0.970459176211523        4775.292199866475        0.04249134702143873      0.0029492373660330333    0.970459176211523
6.705858608060404         0.0028875223570038033    1.0109224499844591       4775.281483905074        0.03919194139373533      0.0028875223570038033    1.0109224499844591
6.841157247963904         0.00278954192241529      1.0522183505351228       4775.2893470722665       0.03560169240834617      0.00278954192241529      1.0522183505351228
6.976225760559495         0.00270007778026768      1.0942041635326185       4775.29527246184         0.03178131611504764      0.00270007778026768      1.0942041635326185
7.111064145847175         0.0026191299305609733    1.1368798889769467       4775.299260073794        0.02773081251383978      0.0026191299305609733    1.136879888976947
7.245672403826947         0.0025466983732951695    1.1802455268681071       4775.30130990813         0.023450181604722568     0.0025466983732951695    1.1802455268681071
7.380050534498808         0.0024827831084702694    1.2243010772060998       4775.301421964848        0.018939423387696004     0.0024827831084702694    1.2243010772060998
7.514198537862763         0.002427384136086272     1.269046539990925        4775.299596243946        0.014198537862760088     0.002427384136086272     1.269046539990925
7.648116413918806         0.002380501456143178     1.3144819152225824       4775.295832745427        0.009227525029914824     0.002380501456143178     1.3144819152225824
0                         0                        0                        4772.604409259829        0                        0                        0
0.14149504421632575       0.0014523833274645251    5.876346899348686E-5     4772.909452740562        0.0026061553274368244    0.0014523833274645251    5.876346899348665E-5
0.28302446949668714       0.00268122547214678      9.845556997899372E-4     4773.191906832653        0.005246691718909185     0.00268122547214678      9.845556997899372E-4
0.4245882758410839        0.0036865264340467645    0.0027773766923893527    4773.451771536103        0.007921609174417083     0.0036865264340467645    0.0027773766923893527
0.5661864632495163        0.004468286213164478     0.005437226446791732     4773.68904685091         0.010630907693960518     0.004468286213164478     0.005437226446791732
0.7078190317219841        0.005026504809499921     0.008964104962997075     4773.903732777075        0.01337458727753949      0.005026504809499921     0.008964104962997075
0.8494859812584877        0.005361182223053094     0.013358012241005381     4774.095829314599        0.016152647925154        0.005361182223053094     0.013358012241005383
0.9911873118590266        0.005472318453823996     0.018618948280816654     4774.26533646348         0.018965089636804044     0.005472318453823997     0.018618948280816654
1.1329230235236012        0.005359913501812629     0.024746913082430887     4774.412254223719        0.02181191241248963      0.005359913501812629     0.024746913082430887
1.2749585824074423        0.005283265984242079     0.031997805229739315     4774.493381369219        0.02495858240744186      0.005283265984242079     0.031997805229739315
1.4169036830521429        0.005210851384266376     0.040192658409472844     4774.567841178599        0.028014794163253618     0.005210851384266376     0.040192658409472844
1.5587583254577027        0.005142669701885522     0.049331472621631456     4774.635633651861        0.030980547679924916     0.005142669701885522     0.04933147262163145
1.7005225096241223        0.005078720937099515     0.059414247866215145     4774.696758789004        0.033855842957455744     0.005078720937099515     0.059414247866215145
1.8421962355514014        0.0050190050899083585    0.07044098414322393      4774.751216590028        0.0366406799958461       0.005019005089908357     0.07044098414322393
1.98377950323954          0.004963522160312047     0.0824116814526578       4774.799007054934        0.03933505879509599      0.004963522160312048     0.0824116814526578
2.1252723126885384        0.004912272148310586     0.09532633979451675      4774.84013018372         0.041938979355205415     0.004912272148310586     0.09532633979451675
10.911956125956547        0.0017486226422836087    2.663266943515956        4775.41724655374         -0.1991549851545677      0.0017486226422836087    2.663266943515956
11.03881008845019         0.0017052521742414062    2.726187003512166        4775.420932796959        -0.2111899115498123      0.001705252174241406     2.726187003512166
11.165296320782968        0.001660449869055215     2.7897533602953803       4775.424251670627        -0.22359256810592334     0.001660449869055215     2.7897533602953803
11.291414822954875        0.0016142157267250354    2.853966013865597        4775.427203174745        -0.23636295482290098     0.0016142157267250354    2.8539660138655973
11.41716559496592         0.001566549747250867     2.9188249642228183       4775.429787309312        -0.24950107170074518     0.001566549747250867     2.9188249642228183
11.542548636816099        0.0015174519306327102    2.9843302113670425       4775.43200407433         -0.2630069187394559      0.0015174519306327102    2.984330211367043
11.66756394850541         0.0014669222768705645    3.050481755298271        4775.433853469796        -0.2768804959390332      0.0014669222768705645    3.050481755298271
11.792211530033853        0.0014149607859644303    3.1172795960165023       4775.435335495713        -0.29112180329947696     0.0014149607859644303    3.1172795960165023
11.916491381401432        0.0013615674579143078    3.1847237335217375       4775.4364501520795       -0.3057308408207873      0.0013615674579143078    3.1847237335217375
12.040346730426387        0.0013171729479509587    3.2529148684077622       4775.448640545398        -0.32076438068472113     0.0013171729479509587    3.2529148684077622
12.163846242623862        0.0012705761449771126    3.321692047717141        4775.458259129535        -0.33615375737613623     0.0012705761449771128    3.321692047717141
12.286989917993855        0.0012217770489927702    3.3910552714498716       4775.465305904486        -0.35189897089503247     0.0012217770489927702    3.391055271449871
12.409777756536366        0.0011707756599979306    3.461004539605956        4775.469780870255        -0.36800002124140996     0.0011707756599979306    3.461004539605956
12.532209758251396        0.0011175719779925944    3.531539852185394        4775.47168402684         -0.3844569084152686      0.0011175719779925944    3.531539852185394
12.654285923138945        0.0010621660029767612    3.6026612091881844       4775.471015374243        -0.4012696324166085      0.0010621660029767612    3.6026612091881844
12.776006251199014        0.0010045577349504313    3.6743686106143283       4775.467774912461        -0.4184381932454296      0.0010045577349504313    3.6743686106143283
12.897370742431601        9.447471739136047E-4     3.7466620564638253       4775.461962641497        -0.43596259090173184     9.447471739136047E-4     3.7466620564638253
10.014285666920445        0.0017996248063037682    2.24346488403863         4775.409584219447        -0.12460322196844527     0.0017996248063037682    2.24346488403863
10.143556514589061        0.001868351419660481     2.30128212104432         4775.404171410707        -0.13422126318871652     0.001868351419660481     2.30128212104432
10.272483292036528        0.0019117404874211391    2.3598175199756044       4775.400927744609        -0.14418337463014133     0.0019117404874211391    2.359817519975605
10.401065999262839        0.0019297920095857426    2.419071080832485        4775.399853221152        -0.1544895562927196      0.0019297920095857426    2.419071080832485
10.529304636267996        0.001922505986154291     2.47904280361496         4775.400947840336        -0.16513980817645138     0.0019225059861542914    2.47904280361496
10.657199203052           0.0018898824171267852    2.53973268832303         4775.404211602163        -0.17613413028133665     0.0018898824171267854    2.53973268832303
10.78474969961485         0.001831921302503224     2.6011407349566955       4775.409644506631        -0.18747252260737543     0.0018319213025032243    2.6011407349566955
13.01825243799819         8.979650100576986E-4     3.81961650950647         4775.471548801958        -0.4539697842240314      8.979650100576986E-4     3.81961650950647
13.138780421712791        8.485224045441681E-4     3.8930954531723088       4775.4806844332825       -0.472330689398318       8.485224045441681E-4     3.8930954531723088
13.258954693575408        7.964193573730129E-4     3.9670988874613435       4775.489369535468        -0.4910453064245916      7.964193573730129E-4     3.9670988874613435
13.378775253586035        7.416558685442331E-4     4.041626812373574        4775.4976041085165       -0.5101136353028525      7.416558685442331E-4     4.041626812373574
13.498242101744678        6.842319380578287E-4     4.116679227908999        4775.505388152427        -0.5295356760331004      6.842319380578287E-4     4.116679227908999
13.617355238051331        6.241475659137996E-4     4.19225613406762         4775.5127216672          -0.5493114286153354      6.241475659137996E-4     4.19225613406762
13.736114662505999        5.614027521121459E-4     4.268357530849437        4775.519604652835        -0.5694408930495576      5.61402752112146E-4      4.268357530849437
13.85452037510868         4.959974966528678E-4     4.344983418254449        4775.526037109333        -0.5899240693357668      4.959974966528678E-4     4.344983418254449
13.97248575660942         3.82873946801302E-4      4.422201684454177        4775.518329167805        -0.6108475767239162      3.82873946801302E-4      4.422201684454177
14.090115378872143        2.788104982255321E-4     4.499902361485764        4775.511093695413        -0.6321068433500795      2.788104982255321E-4     4.499902361485764
14.207409241896856        1.8380715092555807E-4    4.5780854493492065       4775.5043306921525       -0.6537018692142563      1.8380715092555807E-4    4.5780854493492065
14.324367345683552        9.786390490137998E-5     4.656750948044506        4775.498040158028        -0.675632654316447       9.786390490137998E-5     4.656750948044506
14.440989690232238        2.0980760152997787E-5    4.735898857571663        4775.492222093036        -0.6978991986566514      2.0980760152997787E-5    4.735898857571663
14.557276275542907        -4.6842283319588496E-5   4.815529177930677        4775.486876497178        -0.7205015022348696      -4.6842283319588496E-5   4.815529177930677
14.673227101615565        -1.0560522551637886E-4   4.895641909121548        4775.482003370455        -0.7434395650511015      -1.0560522551637886E-4   4.895641909121548
14.78884216845021         -1.5530806643737334E-4   4.976237051144276        4775.477602712865        -0.7667133871053472      -1.5530806643737334E-4   4.976237051144276
17.463446555689238        -0.002297378584808792    7.033256690547976        4775.570624184001        -1.425442333199652       -0.002297378584808792    7.033256690547976
17.571025078708693        -0.002382068619125372    7.123460674199353        4775.565551712158        -1.4567526990690858      -0.002382068619125372    7.123460674199353
17.678314374421646        -0.0024491615987738405   7.213974427586223        4775.560485098076        -1.4883522922450192      -0.00244916159877384     7.213974427586223
17.7853144428281          -0.0024986575237541967   7.304797950708584        4775.555424341756        -1.520241112727453       -0.002498657523754197    7.304797950708584
17.892025283928056        -0.0025305563940664433   7.395931243566436        4775.550369443197        -1.5524191605163866      -0.0025305563940664433   7.395931243566436
17.99844689772151         -0.002544858209710578    7.487374306159781        4775.5453204024          -1.5848864356118202      -0.002544858209710578    7.487374306159781
18.10457928420847         -0.002541562970686602    7.579127138488619        4775.540277219363        -1.617642938013754       -0.002541562970686602    7.5791271384886185
18.21042244338892         -0.0025206706769945143   7.671189740552947        4775.535239894088        -1.6506886677221877      -0.0025206706769945147   7.671189740552948
18.31597637526288         -0.002482181328634316    7.763562112352768        4775.530208426574        -1.6840236247371212      -0.002482181328634316    7.763562112352768
16.592253694778723        -0.0014998364321921285   6.3233557709545165       4775.564086770992        -1.1855240829990519      -0.0014998364321921285   6.3233557709545165
16.70222218789217         -0.0016101174421693984   6.410861919082559        4775.56385918957         -1.214444478774495       -0.0016101174421693984   6.410861919082559
16.811885142291437        -0.0017173732404609009   6.498719914873784        4775.563930110448        -1.2436704132641185      -0.0017173732404609009   6.498719914873784
16.921242557976523        -0.0018216038270666352   6.586929758328194        4775.564299533626        -1.2732018864679229      -0.0018216038270666352   6.586929758328193
17.030294434947425        -0.0019228092019866023   6.675491449445784        4775.564967459102        -1.3030388983859076      -0.0019228092019866023   6.675491449445784
17.13904077320415         -0.002020989365220801    6.764404988226557        4775.565933886878        -1.333181449018073       -0.002020989365220801    6.764404988226557
17.247481572746693        -0.0021161443167692327   6.853670374670514        4775.567198816953        -1.3636295383644186      -0.0021161443167692327   6.853670374670513
17.355616833575052        -0.0022082740566318963   6.943287608777654        4775.568762249327        -1.394383166424945       -0.0022082740566318963   6.943287608777654
14.904016923390843        -2.862908375405446E-4    5.057277236457094        4775.478567255463        -0.7904275210535996      -2.862908375405446E-4    5.057277236457094
15.018865639755866        -4.048320008623241E-4    5.138752330559734        4775.4788827082875       -0.8144676935774682      -4.048320008623241E-4    5.138752330559734
15.133388317545267        -5.109315564027117E-4    5.220662333452196        4775.478549071339        -0.8388339046769532      -5.109315564027117E-4    5.220662333452196
15.247584956759058        -6.045895041617077E-4    5.30300724513448         4775.477566344619        -0.8635261543520543      -6.045895041617077E-4    5.30300724513448
15.361455557397228        -6.85805844139312E-4     5.385787065606585        4775.475934528125        -0.8885444426027717      -6.858058441393119E-4    5.385787065606585
15.475000119459786        -7.545805763355244E-4    5.469001794868513        4775.47365362186         -0.9138887694291051      -7.545805763355245E-4    5.469001794868513
15.588218642946725        -8.10913700750345E-4     5.5526514329202605       4775.47072362582         -0.9395591348310549      -8.10913700750345E-4     5.5526514329202605
15.701111127858047        -8.54805217383774E-4     5.6367359797618315       4775.467144540008        -0.965555538808621       -8.54805217383774E-4     5.6367359797618315
15.81359307949046         -9.828078101335083E-4    5.721206721962994        4775.474567382865        -0.9919624760650978      -9.828078101335085E-4    5.721206721962993
15.925763850903635        -0.0010972750626264743   5.806065101792134        4775.483331636011        -1.0186805935408112      -0.0010972750626264745   5.806065101792134
16.037623442097576        -0.0011982069748626715   5.891311119249251        4775.4934372994485       -1.0457098912357607      -0.0011982069748626715   5.891311119249251
16.149171853072275        -0.0012856035468421002   5.976944774334348        4775.504884373176        -1.0730503691499464      -0.0012856035468421002   5.976944774334348
16.260409083827742        -0.0013594647785647603   6.062966067047423        4775.517672857194        -1.1007020272833683      -0.0013594647785647603   6.062966067047423
16.37133513436397         -0.0014197906700306514   6.149374997388476        4775.531802751502        -1.1286648656360265      -0.0014197906700306516   6.149374997388476
16.481950004680964        -0.0014665812212397743   6.236171565357507        4775.547274056102        -1.1569388842079211      -0.0014665812212397743   6.236171565357507
18.421549694931482        -0.00241778332073908     7.856619643082862        4775.535483849651        -1.7173391939574074      -0.0024177833207390796   7.856619643082862
18.526781636759697        -0.0023757759828751056   7.950046291657744        4775.543499524492        -1.7509961410180803      -0.0023757759828751056   7.950046291657744
18.631672200747524        -0.0023561593150423945   8.043842058077418        4775.5542554510985       -1.7849944659191406      -0.002356159315042395    8.043842058077416
18.736221386894968        -0.002358933317240947    8.13800694234188         4775.567751629468        -1.8193341686605868      -0.002358933317240947    8.13800694234188
18.840429195202027        -0.002384097989470762    8.232540944451133        4775.583988059602        -1.8540152492424204      -0.0023840979894707622   8.232540944451133
18.94429562566869         -0.00243165333173184     8.327444064405173        4775.602964741501        -1.8890377076646405      -0.00243165333173184     8.327444064405174
19.047820678294975        -0.0025015993440241804   8.422716302204005        4775.624681675164        -1.9244015439272477      -0.0025015993440241804   8.422716302204005
19.151004353080868        -0.002593936026347784    8.518357657847625        4775.64913886059         -1.9601067580302416      -0.002593936026347784    8.518357657847625
23.03108711646775         -0.00623698520112897     12.557884406742216       4775.8611195849          -3.6355795501989183      -0.00623698520112897     12.557884406742216
23.12346447562358         -0.006319815169072959    12.662399775015844       4775.873473196515        -3.682091079931972       -0.006319815169072959    12.662399775015844
23.21571830851046         -0.006405187085957195    12.767000809229064       4775.886755230034        -3.7287261359339787      -0.006405187085957195    12.767000809229064
23.307848615128393        -0.006493100951781677    12.871687509381877       4775.900965685456        -3.775484718204939       -0.006493100951781677    12.871687509381877
23.399855395477363        -0.006583556766546405    12.976459875474282       4775.916104562781        -3.8223668267448523      -0.006583556766546405    12.976459875474282
23.491738649557387        -0.00667655453025138     13.081317907506277       4775.9321718620085       -3.8693724615537195      -0.00667655453025138     13.081317907506278
23.58349837736845         -0.006772094242896601    13.186261605477867       4775.949167583139        -3.9165016226315394      -0.006772094242896601    13.186261605477867
23.67513457891057         -0.0068701759044820674   13.291290969389047       4775.967091726172        -3.963754309978314       -0.0068701759044820674   13.291290969389047
23.76664725418373         -0.00697079951500778     13.39640599923982        4775.985944291108        -4.0111305235940415      -0.00697079951500778     13.39640599923982
19.25363999164678         -0.00269423024331868     8.614420394427587        4775.644615755484        -1.9963600083532238      -0.00269423024331868     8.614420394427587
19.355952118389123        -0.0027928572245034954   8.710788328337362        4775.638054520207        -2.0329367704997665      -0.002792857224503496    8.710788328337362
19.45794073330791         -0.002889816969902231    8.807461459576949        4775.629455154762        -2.0698370444698693      -0.0028898169699022305   8.807461459576947
19.559605836403136        -0.002985109479514886    8.904439788146346        4775.618817659147        -2.1070608302635323      -0.002985109479514886    8.904439788146346
19.660947427674802        -0.0030787347533414605   9.00172331404556         4775.606142033363        -2.144608127880756       -0.00307873475334146     9.001723314045558
19.761965507122905        -0.003170692791381955    9.099312037274583        4775.591428277407        -2.1824789373215396      -0.003170692791381955    9.099312037274583
19.86266007474745         -0.003260983593636369    9.19720595783342         4775.574676391284        -2.220673258585884       -0.003260983593636369    9.19720595783342
19.963031130548437        -0.0033496071601047026   9.29540507572207         4775.555886374991        -2.259191091673788       -0.0033496071601047026   9.29540507572207
21.528107427395877        -0.004683973403543559    10.902397962767958       4775.631727665902        -2.9163370170485607      -0.004683973403543559    10.902397962767958
21.62355917667483         -0.004767393479421924    11.004717048458843       4775.643928983002        -2.9597741566584967      -0.004767393479421923    11.004717048458845
21.718804049722007        -0.004853559309758614    11.107200397820527       4775.655445579639        -3.0034181725002127      -0.004853559309758614    11.10720039782053
21.8138420465374          -0.004942470894553632    11.209848010853012       4775.666277455809        -3.0472690645737095      -0.004942470894553631    11.20984801085301